% Model:              version04-chipAndSpace.mph
% Version:            COMSOL 6.1.0.252
% Date:               Aug 31 2023, 16:01
% Dimension:          1
% Nodes:              1965
% Expressions:        21
% Description:        Line graph
% x-coordinate (mm),Number density reconstruction,Number density reconstruction,Number density reconstruction,Number density reconstruction,Number density reconstruction,Number density reconstruction,Number density reconstruction,Number density reconstruction,Number density reconstruction,Number density reconstruction,Number density reconstruction,Number density reconstruction,Number density reconstruction,Number density reconstruction,Number density reconstruction,Number density reconstruction,Number density reconstruction,Number density reconstruction,Number density reconstruction,Number density reconstruction,Number density reconstruction
-50.00000000000001,0,3.3734384139036172E22,6.746876827807291E22,1.0120315241711494E23,1.3493753655614466E23,1.6867192069517063E23,2.0240630483423115E23,2.3614068897320497E23,2.6987507311228777E23,3.036094572513376E23,3.3734384139032475E23,3.710782255293649E23,4.048126096684614E23,4.385469938074033E23,4.722813779464124E23,5.0601576208556565E23,5.397501462245786E23,5.734845303635487E23,6.072189145026437E23,6.409532986417396E23,6.746876827806762E23
-49.98550216391287,0,3.3734429246264734E22,6.746885849253007E22,1.0120328773880068E23,1.3493771698505894E23,1.6867214623131347E23,2.024065754776026E23,2.3614100472380476E23,2.6987543397011626E23,3.0360986321639506E23,3.3734429246261017E23,3.7107872170887936E23,4.048131509552043E23,4.385475802013741E23,4.7228200944761206E23,5.060164386939937E23,5.3975086794023575E23,5.734852971864343E23,6.072197264327591E23,6.409541556790823E23,6.74688584925248E23
-49.92399447834217,0,3.3734608998526465E22,6.746921799705343E22,1.012038269955858E23,1.3493843599410579E23,1.686730449926216E23,2.0240765399117305E23,2.3614226298963713E23,2.6987687198821004E23,3.0361148098675056E23,3.373460899852268E23,3.710806989837582E23,4.04815307982345E23,4.385499169807761E23,4.722845259792767E23,5.060191349779192E23,5.3975374397642316E23,5.734883529748835E23,6.072229619734696E23,6.409575709720559E23,6.746921799704792E23
-49.83028583165998,0,3.3734880265357085E22,6.746976053071482E22,1.0120464079607777E23,1.3493952106142826E23,1.686744013267754E23,2.02409281592157E23,2.3614416185745156E23,2.6987904212285504E23,3.036139223882259E23,3.373488026535344E23,3.7108368291889563E23,4.0481856318431284E23,4.3855344344957576E23,4.722883237149058E23,5.060232039803791E23,5.39758084245713E23,5.734929645110052E23,6.072278447764215E23,6.409627250418379E23,6.746976053070964E23
-49.483777691308795,0,3.3735721100341223E22,6.7471442200683E22,1.0120716330102994E23,1.349428844013649E23,1.6867860550169548E23,2.024143266020611E23,2.3615004770234005E23,2.6988576880272804E23,3.036214899030834E23,3.373572110033738E23,3.7109293210372083E23,4.0482865320412124E23,4.385643743043685E23,4.723000954046828E23,5.060358165051401E23,5.397715376054596E23,5.735072587057333E23,6.072429798061348E23,6.409787009065357E23,6.747144220067762E23
-49.24483442126819,0,3.3736196185666527E22,6.747239237133361E22,1.0120858855700581E23,1.3494478474266611E23,1.6868098092832224E23,2.0241717711401297E23,2.3615337329961736E23,2.6988956948533077E23,3.0362576567101113E23,3.373619618566282E23,3.710981580423E23,4.0483435422802514E23,4.3857055041359755E23,4.7230674659923795E23,5.060429427850202E23,5.3977913897066443E23,5.7351533515626376E23,6.072515313419907E23,6.40987727527715E23,6.747239237132832E23
-49.19814765569693,0,3.3736276961216338E22,6.747255392243333E22,1.0120883088365535E23,1.3494510784486535E23,1.6868138480607138E23,2.02417661767312E23,2.3615393872846595E23,2.698902156897292E23,3.0362649265096E23,3.3736276961212625E23,3.710990465733477E23,4.048353235346231E23,4.38571600495745E23,4.723078774569342E23,5.0604415441826766E23,5.397804313794614E23,5.7351670834061126E23,6.072529853018881E23,6.409892622631628E23,6.747255392242791E23
-49.08711140502299,0,3.373646440003626E22,6.7472928800073205E22,1.0120939320011515E23,1.34945857600145E23,1.6868232200017134E23,2.0241878640023164E23,2.3615525080020568E23,2.6989171520028866E23,3.036281796003391E23,3.3736464400032584E23,3.7110110840036665E23,4.048375728004622E23,4.385740372004044E23,4.7231050160041343E23,5.060469660005657E23,5.3978343040058E23,5.735198948005515E23,6.072563592006459E23,6.409928236007417E23,6.747292880006803E23
-49.019390787069334,0,3.373657317319106E22,6.747314634638268E22,1.0120971951957944E23,1.3494629269276415E23,1.6868286586594473E23,2.024194390391602E23,2.3615601221228883E23,2.698925853855269E23,3.036291585587314E23,3.373657317318731E23,3.7110230490506934E23,4.048388780783195E23,4.3857545125141495E23,4.7231202442457974E23,5.06048597597887E23,5.397851707710566E23,5.73521743944181E23,6.072583171174305E23,6.409948902906809E23,6.74731463463773E23
-48.94339592532732,0,3.3736685796318725E22,6.747337159263805E22,1.0121005738896243E23,1.3494674318527488E23,1.6868342898158316E23,2.0242011477792628E23,2.3615680057418242E23,2.6989348637054806E23,3.0363017216688034E23,3.373668579631493E23,3.7110354375947276E23,4.048402295558516E23,4.385769153520761E23,4.723136011483672E23,5.0605028694480275E23,5.397869727410995E23,5.735236585373515E23,6.072603443337306E23,6.409970301301056E23,6.747337159263265E23
-48.727931322496204,0,3.373698463641621E22,6.747396927283305E22,1.0121095390925514E23,1.3494793854566482E23,1.6868492318207088E23,2.0242190781851153E23,2.3615889245486524E23,2.6989587709132794E23,3.0363286172775876E23,3.3736984636412565E23,3.71106831000547E23,4.04843815637022E23,4.3858080027334365E23,4.7231778490973276E23,5.0605476954626636E23,5.397917541826593E23,5.7352873881901016E23,6.072657234554853E23,6.410027080919612E23,6.747396927282779E23
-48.55898978343464,0,3.373718269564915E22,6.747436539129886E22,1.0121154808695364E23,1.3494873078259661E23,1.6868591347823522E23,2.0242309617390878E23,2.3616027886949543E23,2.698974615651915E23,3.036346442608544E23,3.37371826956454E23,3.711090096521086E23,4.048461923478163E23,4.385833750433719E23,4.7232055773899355E23,5.060577404347592E23,5.3979492313038644E23,5.735321058259695E23,6.072692885216777E23,6.410064712173863E23,6.747436539129355E23
-48.193161025759814,0,3.3737551202148243E22,6.747510240429705E22,1.0121265360645119E23,1.3495020480859292E23,1.6868775601073073E23,2.024253072129036E23,2.3616285841498937E23,2.699004096171842E23,3.036379608193468E23,3.373755120214457E23,3.711130632235976E23,4.048506144258064E23,4.385881656278594E23,4.723257168299813E23,5.060632680322453E23,5.398008192343717E23,5.735383704364535E23,6.072759216386617E23,6.410134728408678E23,6.747510240429172E23
-48.13711667490875,0,3.3737596618634013E22,6.747519323726858E22,1.0121278985590859E23,1.3495038647453604E23,1.6868798309315927E23,2.0242557971181838E23,2.3616317633038985E23,2.699007729490703E23,3.0363836956771856E23,3.37375966186302E23,3.711135628049414E23,4.048511594236357E23,4.3858875604217534E23,4.723263526607819E23,5.060639492795317E23,5.3980154589814414E23,5.735391425167128E23,6.072767391354061E23,6.41014335754099E23,6.74751932372632E23
-48.09269051208295,0,3.373763455448211E22,6.747526910896475E22,1.0121290366345259E23,1.3495053821792839E23,1.6868817277239995E23,2.0242580732690652E23,2.3616344188132628E23,2.6990107643585523E23,3.036387109903512E23,3.3737634554478327E23,3.711139800992711E23,4.04851614653812E23,4.385892492082001E23,4.7232688376265545E23,5.060645183172532E23,5.3980215287171354E23,5.7353978742612924E23,6.072774219806718E23,6.410150565352125E23,6.747526910895942E23
-48.02292114091258,0,3.373768923179853E22,6.747537846359756E22,1.0121306769540201E23,1.3495075692719402E23,1.686884461589822E23,2.0242613539080546E23,2.3616382462254157E23,2.699015138543867E23,3.036392030861991E23,3.3737689231794826E23,3.711145815497521E23,4.0485227078160945E23,4.385899600133144E23,4.723276492450858E23,5.060653384770007E23,5.3980302770877606E23,5.735407169405091E23,6.072784061723677E23,6.410160954042251E23,6.747537846359227E23
-47.98465195199832,0,3.3737720609503837E22,6.747544121900826E22,1.0121316182851803E23,1.3495088243801528E23,1.6868860304750903E23,2.024263236570375E23,2.3616404426647887E23,2.6990176487602932E23,3.036394854855473E23,3.373772060950012E23,3.7111492670450975E23,4.0485264731407366E23,4.385903679234828E23,4.723280885329599E23,5.0606580914258E23,5.398035297520611E23,5.7354125036149974E23,6.07278970971063E23,6.410166915806257E23,6.747544121900306E23
-47.9367381802466,0,3.373775426065388E22,6.747550852130844E22,1.012132627819681E23,1.3495101704261546E23,1.6868877130325956E23,2.0242652556393746E23,2.3616427982452944E23,2.6990203408522945E23,3.0363978834589846E23,3.3737754260650255E23,3.711152968671608E23,4.0485305112787386E23,4.3859080538843506E23,4.7232855964906095E23,5.060663139098308E23,5.3980406817046186E23,5.7354182243104977E23,6.072795766917646E23,6.410173309524785E23,6.747550852130326E23
-47.79325111666992,0,3.3737853495244526E22,6.747570699048964E22,1.012135604857401E23,1.349514139809781E23,1.686892674762125E23,2.0242712097148152E23,2.3616497446666345E23,2.6990282796195484E23,3.036406814572141E23,3.373785349524092E23,3.711163884476584E23,4.0485424194296223E23,4.385920954381127E23,4.723299489333298E23,5.060678024286911E23,5.398056559239124E23,5.735435094190923E23,6.072813629143973E23,6.410192164096986E23,6.747570699048439E23
-47.55796303973384,0,3.373799187694951E22,6.747598375389965E22,1.0121397563085502E23,1.3495196750779808E23,1.686899593847375E23,2.0242795126171146E23,2.361659431385989E23,2.6990393501559468E23,3.0364192689255784E23,3.373799187694582E23,3.711179106464121E23,4.048559025234218E23,4.3859389440027703E23,4.723318862772005E23,5.060698781542654E23,5.398078700311923E23,5.735458619080763E23,6.072838537850854E23,6.410218456620937E23,6.747598375389438E23
-47.204483101898575,0,3.373816212095182E22,6.747632424190415E22,1.012144863628618E23,1.3495264848380726E23,1.6869081060474887E23,2.024289727257251E23,2.3616713484661416E23,2.6990529696761315E23,3.0364345908857894E23,3.3738162120948116E23,3.7111978333043746E23,4.0485794545144926E23,4.3859610757230665E23,4.723342696932311E23,5.0607243181429905E23,5.3981059393522904E23,5.735487560561144E23,6.07286918177126E23,6.410250802981361E23,6.747632424189894E23
-46.696947154048026,0,3.3738330417213303E22,6.747666083442716E22,1.0121499125164634E23,1.3495332166885316E23,1.686916520860562E23,2.0242998250329373E23,2.3616831292044463E23,2.6990664333770475E23,3.03644973754932E23,3.373833041720957E23,3.711216345893131E23,4.048599650065866E23,4.385982954237051E23,4.723366258408911E23,5.060749562582215E23,5.3981328667541265E23,5.7355161709255985E23,6.072899475098328E23,6.410282779271043E23,6.747666083442188E23
-46.48683007931149,0,3.3738378493803102E22,6.74767569876068E22,1.0121513548141557E23,1.3495351397521234E23,1.6869189246900517E23,2.024302709628324E23,2.3616864945657347E23,2.6990702795042348E23,3.0364540644424046E23,3.3738378493799376E23,3.711221634318025E23,4.048605419256639E23,4.385989204193729E23,4.723372989131492E23,5.060756774070689E23,5.398140559008494E23,5.7355243439458656E23,6.072908128884488E23,6.410291913823112E23,6.747675698760146E23
-46.3862801007952,0,3.373839891938279E22,6.747679783876613E22,1.0121519675815455E23,1.349535956775311E23,1.6869199459690367E23,2.024303935163107E23,2.361687924356313E23,2.6990719135506073E23,3.03645590274458E23,3.373839891937907E23,3.711223881131782E23,4.048607870326204E23,4.385991859519095E23,4.7233758487126494E23,5.0607598379076474E23,5.398143827101244E23,5.735527816294416E23,6.072911805488853E23,6.410295794683251E23,6.747679783876092E23
-46.27359070157932,0,3.3738418615866035E22,6.747683723173271E22,1.0121525584760442E23,1.3495367446346406E23,1.6869209307931963E23,2.0243051169521034E23,2.3616893031101364E23,2.699073489269267E23,3.0364576754280694E23,3.373841861586233E23,3.711226047744937E23,4.048610233904195E23,4.3859944200619E23,4.7233786062203E23,5.06076279238012E23,5.398146978538562E23,5.735531164696558E23,6.072915350855813E23,6.41029953701505E23,6.747683723172729E23
-46.111039551227805,0,3.3738445195030397E22,6.747689039006146E22,1.0121533558509773E23,1.3495378078012154E23,1.686922259751421E23,2.0243067117019673E23,2.3616911636516445E23,2.6990756156024184E23,3.03646006755286E23,3.37384451950267E23,3.711228971453027E23,4.0486134234039245E23,4.38599787535328E23,4.723382327303315E23,5.060766779254792E23,5.3981512312048615E23,5.735535683154503E23,6.07292013510542E23,6.4103045870563E23,6.747689039005629E23
-45.847788406093926,0,3.373847264755668E22,6.747694529511399E22,1.0121541794267633E23,1.349538905902267E23,1.6869236323777307E23,2.0243083588535406E23,2.361693085328481E23,2.6990778118045183E23,3.036462538280225E23,3.373847264755302E23,3.7112319912309166E23,4.048616717707071E23,4.386001444181692E23,4.7233861706569845E23,5.0607708971337135E23,5.398155623609068E23,5.735540350083959E23,6.072925076560134E23,6.410309803036285E23,6.747694529510868E23
-45.67248540259009,0,3.373848277308606E22,6.747696554617269E22,1.0121544831926469E23,1.349539310923442E23,1.6869241386542018E23,2.0243089663853056E23,2.3616937941155376E23,2.6990786218468682E23,3.0364634495778696E23,3.3738482773082405E23,3.7112331050391457E23,4.048617932770604E23,4.386002760500519E23,4.723387588231098E23,5.060772415963127E23,5.398157243693768E23,5.735542071423971E23,6.072926899155416E23,6.410311726886874E23,6.747696554616751E23
-45.58974846959217,0,3.3738485981390066E22,6.747697196278071E22,1.0121545794417656E23,1.349539439255603E23,1.6869242990693992E23,2.024309158883546E23,2.3616940186968223E23,2.6990788785111882E23,3.036463738325232E23,3.373848598138631E23,3.711233457952581E23,4.048618317767082E23,4.3860031775800425E23,4.7233880373936695E23,5.0607728972087386E23,5.398157757022412E23,5.735542616835642E23,6.072927476650155E23,6.410312336464636E23,6.74769719627754E23
-45.53834463957124,0,3.3738489414846935E22,6.747697882969446E22,1.0121546824454707E23,1.349539576593877E23,1.6869244707422425E23,2.0243093648909564E23,2.361694259038802E23,2.6990791531877407E23,3.036464047336351E23,3.373848941484324E23,3.711233835632844E23,4.048618729781901E23,4.386003623929428E23,4.7233885180776254E23,5.060773412227263E23,5.398158306375508E23,5.7355432005233185E23,6.072928094672391E23,6.410312988821444E23,6.747697882968916E23
-45.17416018996512,0,3.373849357627405E22,6.747698715254873E22,1.0121548072882838E23,1.3495397430509622E23,1.686924678813604E23,2.0243096145765824E23,2.3616945503387053E23,2.6990794861019093E23,3.036464421864798E23,3.373849357627038E23,3.711234293389822E23,4.048619229153155E23,4.3860041649149534E23,4.723389100677435E23,5.0607740364413366E23,5.398158972203849E23,5.73554390796593E23,6.07292884372928E23,6.410313779492584E23,6.747698715254358E23
-44.846415322164646,0,3.3738482357365117E22,6.74769647147308E22,1.0121544707210157E23,1.349539294294604E23,1.6869241178681462E23,2.024308941442044E23,2.3616937650150753E23,2.6990785885891943E23,3.036463412162984E23,3.373848235736131E23,3.711233059309832E23,4.0486178828840815E23,4.386002706456794E23,4.723387530030172E23,5.060772353604982E23,5.398157177178416E23,5.73554200075141E23,6.07292682432566E23,6.410311647899882E23,6.747696471472533E23
-44.806064970228185,0,3.373848738929733E22,6.747697477859529E22,1.0121546216789842E23,1.349539495571893E23,1.686924369464767E23,2.0243092433579828E23,2.3616941172503354E23,2.6990789911437705E23,3.0364638650368885E23,3.3738487389293666E23,3.711233612822382E23,4.048618486715952E23,4.386003360607983E23,4.7233882345006984E23,5.060773108394819E23,5.398157982287572E23,5.7355428561798876E23,6.07292773007346E23,6.410312603967003E23,6.747697477859014E23
-44.78392341259498,0,3.3738485812356876E22,6.747697162471433E22,1.0121545743707715E23,1.349539432494275E23,1.6869242906177415E23,2.024309148741554E23,2.361694006864501E23,2.6990788649885336E23,3.036463723112242E23,3.37384858123532E23,3.7112334393589295E23,4.0486182974830996E23,4.386003155605719E23,4.723388013729023E23,5.060772871853741E23,5.3981577299771E23,5.735542588100002E23,6.072927446224165E23,6.410312304348327E23,6.747697162470905E23
-44.405974432654624,0,3.3738459805382674E22,6.747691961076598E22,1.0121537941615436E23,1.3495383922153071E23,1.6869229902690342E23,2.0243075883231007E23,2.3616921863763072E23,2.699076784430602E23,3.0364613824845667E23,3.373845980537904E23,3.711230578591773E23,4.048615176646193E23,4.385999774699078E23,4.72338437275264E23,5.060768970807615E23,5.3981535688612285E23,5.7355381669143954E23,6.07292276496881E23,6.410307363023252E23,6.747691961076086E23
-44.38500736696008,0,3.3738459716983296E22,6.74769194339672E22,1.012153791509562E23,1.3495383886793314E23,1.6869229858490636E23,2.0243075830191395E23,2.36169218018835E23,2.6990767773586496E23,3.036461374528619E23,3.3738459716979634E23,3.7112305688678454E23,4.0486151660382684E23,4.385999763207164E23,4.723384360376723E23,5.06076895754771E23,5.3981535547173254E23,5.7355381518864994E23,6.072922749056925E23,6.410307346227345E23,6.747691943396187E23
-44.242612175859826,0,3.3738442713980987E22,6.747688542796247E22,1.0121532814194955E23,1.3495377085592392E23,1.6869221356989484E23,2.0243065628390048E23,2.3616909899781877E23,2.6990754171184632E23,3.036459844258422E23,3.373844271397723E23,3.7112286985375874E23,4.048613125678E23,4.3859975528168653E23,4.723381979956406E23,5.060766407097368E23,5.3981508342369566E23,5.735535261376114E23,6.07291968851652E23,6.410304115656919E23,6.747688542795725E23
-43.66683268344896,0,3.3742267550221386E22,6.7484535100443376E22,1.0122680265067066E23,1.349690702008855E23,1.687113377510965E23,2.024536053013426E23,2.3619587285150084E23,2.6993814040176958E23,3.036804079520054E23,3.374226755021768E23,3.711649430524037E23,4.049072106026843E23,4.386494781528111E23,4.7239174570300464E23,5.06134013253343E23,5.39876280803542E23,5.736185483536969E23,6.07360815903979E23,6.411030834542588E23,6.748453510043807E23
-43.270346701033304,0,3.374221769946007E22,6.7484435398920686E22,1.0122665309838651E23,1.3496887079784026E23,1.6871108849728994E23,2.024533061967746E23,2.3619552389617177E23,2.6993774159567905E23,3.036799592951533E23,3.3742217699456444E23,3.7116439469402794E23,4.049066123935483E23,4.38648830092913E23,4.7239104779234675E23,5.061332654919223E23,5.3987548319136106E23,5.736177008907544E23,6.073599185902742E23,6.411021362897948E23,6.748443539891546E23
-43.0733991779614,0,3.374218657353848E22,6.748437314707758E22,1.01226559720622E23,1.3496874629415388E23,1.6871093286768223E23,2.0245311944124544E23,2.361953060147214E23,2.6993749258830636E23,3.036796791618588E23,3.374218657353485E23,3.711640523088905E23,4.049062388824895E23,4.3864842545593386E23,4.723906120294457E23,5.061327986031002E23,5.398749851766155E23,5.736171717500888E23,6.07359358323687E23,6.411015448972847E23,6.748437314707227E23
-42.98997749243447,0,3.3742173957817027E22,6.748434791563463E22,1.0122652187345744E23,1.3496869583126809E23,1.687108697890749E23,2.0245304374691616E23,2.361952177046707E23,2.6993739166253487E23,3.0367956562036495E23,3.374217395781324E23,3.7116391353595457E23,4.049060874938316E23,4.3864826145155405E23,4.723904354093435E23,5.0613260936727816E23,5.3987478332507236E23,5.736169572828228E23,6.073591312406998E23,6.411013051985754E23,6.748434791562935E23
-42.56625764438178,0,3.3742107922909566E22,6.748421584581975E22,1.0122632376873494E23,1.3496843169163823E23,1.687105396145379E23,2.0245264753747126E23,2.3619475546031878E23,2.69936863383275E23,3.036789713061991E23,3.374210792290588E23,3.711631871519727E23,4.049052950749415E23,4.386474029977564E23,4.723895109206402E23,5.0613161884366573E23,5.398737267665529E23,5.736158346893966E23,6.073579426123655E23,6.411000505353344E23,6.748421584581448E23
-42.272411920116554,0,3.3742057926796683E22,6.748411585359399E22,1.0122617378039659E23,1.3496823170718667E23,1.6871028963397324E23,2.0245234756079455E23,2.3619440548752836E23,2.699364634143716E23,3.036785213411831E23,3.374205792679298E23,3.711626371947311E23,4.049046951215883E23,4.386467530482887E23,4.7238881097505913E23,5.0613086890197195E23,5.3987292682874666E23,5.736149847554769E23,6.073570426823336E23,6.4109910060919E23,6.74841158535887E23
-42.12063677362837,0,3.3742031951849843E22,6.748406390370036E22,1.0122609585555606E23,1.3496812780739937E23,1.6871015975923926E23,2.024521917111136E23,2.3619422366290115E23,2.6993625561479757E23,3.0367828756666146E23,3.374203195184613E23,3.711623514703157E23,4.0490438342222604E23,4.3864641537398035E23,4.7238844732580546E23,5.0613047927776996E23,5.398725112295975E23,5.736145431813812E23,6.07356575133293E23,6.410986070851989E23,6.748406390369509E23
-41.99308618680958,0,3.374201334920459E22,6.748402669840968E22,1.0122604004761996E23,1.349680533968183E23,1.687100667460123E23,2.0245208009524152E23,2.3619409344438363E23,2.699361067936352E23,3.036781201428531E23,3.374201334920079E23,3.7116214684121786E23,4.049041601904819E23,4.3864617353959194E23,4.723881868887699E23,5.0613020023809003E23,5.398722135872732E23,5.7361422693641163E23,6.073562402856755E23,6.410982536349385E23,6.748402669840422E23
-41.763119184394405,0,3.374197150026902E22,6.748394300053864E22,1.012259145008135E23,1.3496788600107605E23,1.6870985750133486E23,2.0245182900162843E23,2.3619380050183488E23,2.6993577200215045E23,3.03677743502434E23,3.374197150026529E23,3.711616865029275E23,4.0490365800325585E23,4.386456295034296E23,4.7238760100367224E23,5.0612957250405734E23,5.398715440043042E23,5.736135155045073E23,6.073554870048364E23,6.410974585051644E23,6.748394300053326E23
-41.712203019538215,0,3.3741957826349806E22,6.748391565270027E22,1.0122587347905597E23,1.349678313053992E23,1.6870978913173895E23,2.0245174695811305E23,2.361937047844002E23,2.69935662610797E23,3.0367762043716144E23,3.374195782634608E23,3.711615360898156E23,4.0490349391622537E23,4.386454517424812E23,4.723874095688029E23,5.061293673952692E23,5.398713252215968E23,5.736132830478803E23,6.073552408742916E23,6.410971987007001E23,6.748391565269506E23
-41.666201091662764,0,3.374195216968796E22,6.748390433937653E22,1.012258565090701E23,1.3496780867875187E23,1.6870976084842908E23,2.0245171301814143E23,2.3619366518776715E23,2.6993561735750213E23,3.036775695272031E23,3.374195216968418E23,3.711614738665346E23,4.049034260362819E23,4.386453782058758E23,4.723873303755372E23,5.0612928254534085E23,5.398712347150075E23,5.7361318688462745E23,6.073551390543755E23,6.410970912241228E23,6.748390433937105E23
-41.373159064585735,0,3.374189780419111E22,6.748379560838282E22,1.0122569341257959E23,1.3496759121676447E23,1.6870948902094538E23,2.0245138682516075E23,2.3619328462928975E23,2.6993518243352746E23,3.03677080237733E23,3.374189780418748E23,3.7116087584607026E23,4.049027736503205E23,4.386446714544171E23,4.7238656925858164E23,5.061284670628896E23,5.398703648670579E23,5.7361226267118437E23,6.073541604754357E23,6.410960582796848E23,6.748379560837757E23
-40.93764871320018,0,3.374580509072723E22,6.749161018145504E22,1.012374152721881E23,1.349832203629089E23,1.6872902545362626E23,2.0247483054437773E23,2.362206356350427E23,2.6996644072581628E23,3.03712245816558E23,3.374580509072367E23,3.7120385599796704E23,4.049496610887546E23,4.38695466179387E23,4.724412712700879E23,5.061870763609312E23,5.399328814516356E23,5.736786865422976E23,6.074244916330852E23,6.411702967238698E23,6.749161018144999E23
-40.89925854718826,0,3.374579836769401E22,6.749159673538858E22,1.0123739510308854E23,1.3498319347077607E23,1.687289918384604E23,2.0247479020617846E23,2.3622058857381023E23,2.6996638694155054E23,3.0371218530925904E23,3.3745798367690315E23,3.712037820446017E23,4.04949580412356E23,4.3869537877995614E23,4.724411771476233E23,5.0618697551543166E23,5.399327738831043E23,5.7367857225073344E23,6.07424370618487E23,6.41170168986238E23,6.749159673538356E23
-40.848055413106835,0,3.374578793600598E22,6.7491575872012545E22,1.0123736380802436E23,1.3498315174402395E23,1.6872893968001993E23,2.0247472761605013E23,2.3622051555199395E23,2.699663034880466E23,3.037120914240659E23,3.374578793600225E23,3.712036672960331E23,4.0494945523209924E23,4.386952431680109E23,4.7244103110399025E23,5.061868190401119E23,5.399326069760958E23,5.736783949120365E23,6.074241828481009E23,6.411699707841668E23,6.74915758720075E23
-40.01754317382418,0,3.374174575773255E22,6.748349151546566E22,1.0122523727320395E23,1.3496698303093013E23,1.6870872878865233E23,2.024504745464091E23,2.3619222030407977E23,2.6993396606185863E23,3.0367571181960526E23,3.374174575772884E23,3.711592033350253E23,4.0490094909281747E23,4.386426948504548E23,4.72384440608162E23,5.0612618636601054E23,5.3986793212372054E23,5.736096778813877E23,6.073514236391794E23,6.410931693969719E23,6.748349151546035E23
-39.831783586095426,0,3.3741710342405763E22,6.748342068481215E22,1.0122513102722404E23,1.3496684136962305E23,1.6870855171201862E23,2.0245026205444943E23,2.361919723967923E23,2.6993368273924493E23,3.036753930816652E23,3.374171034240216E23,3.7115881376643155E23,4.049005241088978E23,4.38642234451209E23,4.7238394479358746E23,5.061256551361094E23,5.398673654784922E23,5.736090758208318E23,6.07350786163298E23,6.410924965057637E23,6.748342068480691E23
-39.82395057484356,0,3.374170875904794E22,6.748341751809653E22,1.012251262771504E23,1.3496683503619177E23,1.687085437952293E23,2.0245025255430225E23,2.3619196131328746E23,2.69933670072382E23,3.036753788314441E23,3.374170875904427E23,3.7115879634949466E23,4.049005051086035E23,4.386422138675564E23,4.723839226265775E23,5.0612563138574106E23,5.398673401447671E23,5.7360904890374906E23,6.073507576628561E23,6.410924664219632E23,6.748341751809103E23
-38.88809309898816,0,3.374153483214924E22,6.748306966429913E22,1.0122460449645436E23,1.3496613932859696E23,1.6870767416073602E23,2.0244920899290997E23,2.3619074382499685E23,2.699322786571925E23,3.0367381348935556E23,3.374153483214557E23,3.7115688315360985E23,4.048984179858191E23,4.386399528178723E23,4.7238148764999645E23,5.0612302248226144E23,5.3986455731438784E23,5.736060921464711E23,6.073476269786808E23,6.410891618108882E23,6.748306966429374E23
-38.870573568799045,0,3.374153501113874E22,6.748307002227808E22,1.012246050334228E23,1.3496614004455492E23,1.687076750556837E23,2.0244921006684698E23,2.361907450779229E23,2.6993228008910813E23,3.0367381510026136E23,3.37415350111351E23,3.7115688512249386E23,4.048984201336926E23,4.3863995514473736E23,4.7238149015584834E23,5.061230251671041E23,5.398645601782197E23,5.736060951892921E23,6.073476302004919E23,6.410891652116897E23,6.748307002227286E23
-38.61192763508112,0,3.37414865631114E22,6.748297312622342E22,1.0122445968934046E23,1.3496594625244559E23,1.6870743281554636E23,2.024489193786824E23,2.3619040594173134E23,2.6993189250488974E23,3.036733790680154E23,3.3741486563107694E23,3.7115635219419205E23,4.048978387573636E23,4.386393253203807E23,4.723808118834656E23,5.061222984466927E23,5.3986378500978236E23,5.736052715728272E23,6.073467581359998E23,6.410882446991688E23,6.748297312621803E23
-38.35256712370332,0,3.374144182177413E22,6.7482883643548834E22,1.0122432546532881E23,1.3496576728709644E23,1.687072091088605E23,2.0244865093065916E23,2.361900927523706E23,2.6993153457419108E23,3.0367297639597896E23,3.374144182177044E23,3.711558600394827E23,4.048973018613173E23,4.3863874368299474E23,4.723801855047438E23,5.06121627326633E23,5.398630691483858E23,5.7360451097009266E23,6.073459527919256E23,6.410873946137588E23,6.748288364354356E23
-38.32559835444302,0,3.3741434725882334E22,6.7482869451765204E22,1.0122430417765313E23,1.3496573890352934E23,1.6870717362940088E23,2.0244860835530767E23,2.361900430811273E23,2.6993147780705716E23,3.0367291253295295E23,3.374143472587849E23,3.7115578198467204E23,4.048972167106142E23,4.386386514364017E23,4.72380086162257E23,5.061215208882546E23,5.3986295561411734E23,5.7360439033993105E23,6.073458250658741E23,6.410872597918131E23,6.748286945175972E23
-38.222978355163015,0,3.3737424487732535E22,6.747484897546565E22,1.0121227346320403E23,1.3494969795093014E23,1.6868712243865238E23,2.0242454692640953E23,2.3616197141407974E23,2.6989939590185887E23,3.03636820389606E23,3.373742448772879E23,3.7111166936502536E23,4.0484909385281805E23,4.3858651834045504E23,4.7232394282816216E23,5.060613673160105E23,5.3979879180372055E23,5.735362162913857E23,6.072736407791781E23,6.410110652669714E23,6.747484897546039E23
-38.21937155001783,0,3.373742372996012E22,6.747484745992087E22,1.0121227118988688E23,1.349496949198405E23,1.6868711864979017E23,2.0242454237977523E23,2.361619661096734E23,2.6989938983967966E23,3.0363681356965396E23,3.3737423729956457E23,3.7111166102952886E23,4.048490847595492E23,4.3858650848941437E23,4.723239322193491E23,5.0606135594942355E23,5.39798779679362E23,5.735362034092556E23,6.072736271392769E23,6.410110508692962E23,6.747484745991549E23
-38.21684659670492,0,3.3737424097786083E22,6.747484819557273E22,1.0121227229336456E23,1.349496963911443E23,1.6868712048891993E23,2.0242454458673052E23,2.3616196868445458E23,2.6989939278228712E23,3.0363681688008744E23,3.3737424097782375E23,3.7111166507561434E23,4.048490891734601E23,4.385865132711516E23,4.723239373689118E23,5.060613614668126E23,5.397987855645772E23,5.735362096622961E23,6.07273633760143E23,6.410110578579882E23,6.74748481955674E23
-37.73749782030646,0,3.374236788311774E22,6.748473576623618E22,1.0122710364935963E23,1.3496947153247093E23,1.6871183941557815E23,2.024542072987206E23,2.361965751817763E23,2.6993894306494055E23,3.036813109480719E23,3.374236788311403E23,3.7116604671426245E23,4.049084145974402E23,4.3865078248046316E23,4.723931503635547E23,5.061355182467891E23,5.398778861298837E23,5.736202540129359E23,6.073626218961135E23,6.411049897792897E23,6.748473576623065E23