% Model:              version04-chipAndSpace.mph
% Version:            COMSOL 6.1.0.252
% Date:               Aug 31 2023, 14:20
% Dimension:          1
% Nodes:              1965
% Expressions:        41
% Description:        Line graph
% x-coordinate (mm),Number density reconstruction,Number density reconstruction,Number density reconstruction,Number density reconstruction,Number density reconstruction,Number density reconstruction,Number density reconstruction,Number density reconstruction,Number density reconstruction,Number density reconstruction,Number density reconstruction,Number density reconstruction,Number density reconstruction,Number density reconstruction,Number density reconstruction,Number density reconstruction,Number density reconstruction,Number density reconstruction,Number density reconstruction,Number density reconstruction,Number density reconstruction,Number density reconstruction,Number density reconstruction,Number density reconstruction,Number density reconstruction,Number density reconstruction,Number density reconstruction,Number density reconstruction,Number density reconstruction,Number density reconstruction,Number density reconstruction,Number density reconstruction,Number density reconstruction,Number density reconstruction,Number density reconstruction,Number density reconstruction,Number density reconstruction,Number density reconstruction,Number density reconstruction,Number density reconstruction,Number density reconstruction
-50.00000000000001,6.746876827806825E23,7.421564510587043E23,8.096252193369184E23,8.770939876148128E23,9.445627558928199E23,1.0120315241710314E24,1.079500292449157E24,1.1469690607270914E24,1.214437829005281E24,1.2819065972833812E24,1.3493753655613632E24,1.4168441338396143E24,1.4843129021174626E24,1.5517816703957677E24,1.619250438673835E24,1.6867192069517836E24,1.7541879752296388E24,1.8216567435080293E24,1.8891255117857294E24,1.9565942800638206E24,2.0240630483422626E24,2.0915318166200958E24,2.1590005848983021E24,2.226469353176176E24,2.2939381214542915E24,2.3614068897321513E24,2.42887565801056E24,2.496344426288548E24,2.563813194566763E24,2.6312819628446357E24,2.6987507311227263E24,2.766219499401103E24,2.8336882676792287E24,2.9011570359570117E24,2.968625804234819E24,3.0360945725130056E24,3.1035633407915354E24,3.1710321090693E24,3.23850087734767E24,3.3059696456257434E24,3.373438413903705E24
-49.98550216391287,6.746885849252539E23,7.421574434177346E23,8.096263019104044E23,8.77095160402754E23,9.44564018895219E23,1.0120328773878887E24,1.0795017358804714E24,1.1469705943728617E24,1.2144394528655107E24,1.2819083113580692E24,1.3493771698505064E24,1.4168460283432129E24,1.4843148868355204E24,1.5517837453282824E24,1.6192526038208066E24,1.6867214623132124E24,1.7541903208055226E24,1.8216591792983716E24,1.889128037790526E24,1.9565968962830798E24,2.024065754775975E24,2.0915346132682642E24,2.15900347176093E24,2.2264723302532602E24,2.2939411887458335E24,2.3614100472381545E24,2.428878905731019E24,2.4963477642234613E24,2.5638166227161385E24,2.631285481208464E24,2.698754339701013E24,2.766223198193839E24,2.8336920566864257E24,2.9011609151786707E24,2.96862977367094E24,3.0360986321635795E24,3.103567490656565E24,3.171036349148782E24,3.238505207641613E24,3.3059740661341454E24,3.373442924626557E24
-49.92399447834217,6.746921799704863E23,7.421613979674924E23,8.096306159646851E23,8.770998339615577E23,9.445690519585485E23,1.0120382699557378E24,1.0795074879528463E24,1.1469767059497591E24,1.214445923946932E24,1.281915141944014E24,1.3493843599409703E24,1.4168535779382049E24,1.4843227959350365E24,1.5517920139323208E24,1.6192612319293677E24,1.6867304499262987E24,1.7541996679231317E24,1.8216688859205024E24,1.8891381039171867E24,1.9566073219142587E24,2.0240765399116769E24,2.091545757908492E24,2.1590149759056803E24,2.2264841939025318E24,2.2939534118996338E24,2.3614226298964752E24,2.428891847893861E24,2.4963610658908273E24,2.563830283888028E24,2.631299501884878E24,2.6987687198819405E24,2.766237937879301E24,2.8337071558764097E24,2.9011763738731735E24,2.9686455918699716E24,3.0361148098671294E24,3.1035840278646416E24,3.1710532458613844E24,3.2385224638587355E24,3.305991681855793E24,3.373460899852729E24
-49.83028583165998,6.746976053071015E23,7.421673658377678E23,8.096371263686213E23,8.771068868991574E23,9.445766474298062E23,1.012046407960661E24,1.079516168491426E24,1.146985929022003E24,1.214455689552835E24,1.2819254500835783E24,1.349395210614202E24,1.4168649711450968E24,1.4843347316755847E24,1.5518044922065316E24,1.6192742527372396E24,1.6867440132678297E24,1.7542137737983283E24,1.8216835343293613E24,1.8891532948597045E24,1.956623055390439E24,2.0240928159215164E24,2.0915625764519944E24,2.1590323369828403E24,2.2265020975133577E24,2.2939718580441178E24,2.3614416185746212E24,2.428911379105668E24,2.496381139636307E24,2.563850900167157E24,2.63132066069767E24,2.698790421228404E24,2.766260181759418E24,2.8337299422901936E24,2.901199702820617E24,2.9686694633510733E24,3.0361392238818894E24,3.103608984413063E24,3.1710787449434686E24,3.238548505474479E24,3.3060182660051997E24,3.3734880265357947E24
-49.483777691308795,6.747144220067819E23,7.42185864207418E23,8.09657306408238E23,8.771287486087433E23,9.446001908093602E23,1.0120716330101833E24,1.0795430752109189E24,1.14701451741146E24,1.2144859596122626E24,1.281957401812977E24,1.3494288440135625E24,1.4169002862144253E24,1.484371728414886E24,1.551843170615798E24,1.6193146128164745E24,1.6867860550170364E24,1.7542574972175008E24,1.8217289394184978E24,1.8892003816188096E24,1.9566718238195137E24,2.0241432660205604E24,2.0916147082210042E24,2.1590861504218243E24,2.226557592622307E24,2.2940290348230332E24,2.3615004770235108E24,2.428971919224522E24,2.496443361425123E24,2.563914803625954E24,2.631386245826433E24,2.698857688027125E24,2.766329130228113E24,2.8338005724288507E24,2.901272014629249E24,2.968743456829673E24,3.0362148990304566E24,3.103686341231596E24,3.1711577834319814E24,3.238629225632949E24,3.306100667833642E24,3.373572110034206E24
-49.24483442126819,6.74723923713289E23,7.421963160845735E23,8.096687084560449E23,8.771411008272003E23,9.446134931984695E23,1.0120858855699404E24,1.0795582779413285E24,1.1470306703125212E24,1.2145030626839734E24,1.2819754550553334E24,1.3494478474265763E24,1.416920239798091E24,1.4843926321692023E24,1.551865024540762E24,1.619337416912088E24,1.6868098092833024E24,1.7542822016544144E24,1.821754594026067E24,1.8892269863970267E24,1.9566993787683824E24,2.0241717711400809E24,2.0916441635111764E24,2.1591165558826462E24,2.2265889482537777E24,2.2940613406251533E24,2.3615337329962795E24,2.4290061253679457E24,2.4964785177391943E24,2.5639509101106673E24,2.6314233024818E24,2.6988956948531527E24,2.766368087224784E24,2.833840479596182E24,2.9013128719672227E24,2.9687852643382957E24,3.036257656709737E24,3.103730049081524E24,3.1712024414525563E24,3.238674833824176E24,3.306147226195516E24,3.3736196185667396E24
-49.19814765569693,6.747255392242855E23,7.421980931466713E23,8.09670647069242E23,8.771432009914963E23,9.446157549138638E23,1.0120883088364355E24,1.0795608627589225E24,1.1470334166812162E24,1.2145059706037684E24,1.281978524526227E24,1.3494510784485684E24,1.4169236323711833E24,1.4843961862933922E24,1.551868740216055E24,1.619341294138482E24,1.6868138480607932E24,1.7542864019830063E24,1.8217589559057537E24,1.8892315098278186E24,1.956704063750274E24,2.0241766176730706E24,2.0916491715952618E24,2.1591217255178335E24,2.2265942794400676E24,2.2940668333625436E24,2.3615393872847688E24,2.429011941207535E24,2.4964844951298876E24,2.563957049052454E24,2.6314296029746887E24,2.6989021568971367E24,2.7663747108198693E24,2.8338472647423667E24,2.9013198186645033E24,2.9687923725866883E24,3.0362649265092244E24,3.10373748043211E24,3.1712100343542444E24,3.238682588276964E24,3.306155142199402E24,3.3736276961217286E24
-49.08711140502299,6.747292880006854E23,7.422022168007089E23,8.096751456009201E23,8.771480744008155E23,9.446210032008227E23,1.0120939320010345E24,1.0795668608011599E24,1.147039789601096E24,1.2145127184012854E24,1.2819856472013835E24,1.3494585760013694E24,1.41693150480162E24,1.4844044336014687E24,1.5518773624017685E24,1.6193502912018373E24,1.6868232200017894E24,1.7542961488016443E24,1.8217690776020358E24,1.889242006401732E24,1.95671493520183E24,2.0241878640022628E24,2.091660792802101E24,2.1591337216023093E24,2.2266066504021835E24,2.2940795792023045E24,2.361552508002164E24,2.429025436802569E24,2.496498365602562E24,2.5639712944027675E24,2.631444223202642E24,2.698917152002739E24,2.7663900808031083E24,2.83386300960324E24,2.9013359384030173E24,2.9688088672028376E24,3.036281796003026E24,3.103754724803537E24,3.171227653603318E24,3.2387005824036746E24,3.306173511203756E24,3.373646440003713E24
-49.019390787069334,6.747314634637789E23,7.422046098101133E23,8.096777561566343E23,8.771509025028368E23,9.446240488491553E23,1.0120971951956753E24,1.0795703415421131E24,1.1470434878883545E24,1.2145166342348547E24,1.2819897805812644E24,1.3494629269275554E24,1.416936073274116E24,1.484409219620279E24,1.5518823659668903E24,1.6193555123132664E24,1.686828658659529E24,1.754301805005686E24,1.8217749513523868E24,1.8892480976983984E24,1.9567212440448046E24,2.024194390391548E24,2.091667536737692E24,2.1591406830842152E24,2.2266138294303932E24,2.294086975776819E24,2.361560122122991E24,2.4290332684697066E24,2.49650641481601E24,2.5639795611625287E24,2.631452707508713E24,2.698925853855111E24,2.7663990002017957E24,2.833872146548232E24,2.9013452928943316E24,2.968818439240455E24,3.0362915855869454E24,3.1037647319337805E24,3.1712378782798614E24,3.238711024626533E24,3.306184170972918E24,3.3736573173191847E24
-48.94339592532732,6.747337159263326E23,7.422070875189214E23,8.096804591116979E23,8.771538307041585E23,9.446272022967297E23,1.0121005738895065E24,1.0795739454821988E24,1.1470473170746956E24,1.2145206886674526E24,1.2819940602601142E24,1.349467431852664E24,1.4169408034454788E24,1.484414175037893E24,1.551887546630763E24,1.6193609182233938E24,1.6868342898159124E24,1.7543076614083308E24,1.8217810330012812E24,1.889254404593546E24,1.956727776186208E24,2.024201147779211E24,2.0916745193716104E24,2.1591478909643844E24,2.2266212625568176E24,2.2940946341495045E24,2.36156800574193E24,2.4290413773349036E24,2.496514748927457E24,2.5639881205202285E24,2.6314614921126694E24,2.698934863705328E24,2.766408235298262E24,2.8338816068909576E24,2.9013549784833105E24,2.9688283500756876E24,3.036301721668426E24,3.103775093261526E24,3.1712484648538576E24,3.2387218364467877E24,3.3061952080394235E24,3.3736685796319595E24
-48.727931322496204,6.747396927282835E23,7.422136620010689E23,8.0968763127404E23,8.77161600546693E23,9.44635569819461E23,1.0121095390924331E24,1.0795835083653182E24,1.1470574776380139E24,1.214531446910963E24,1.282005416183826E24,1.3494793854565654E24,1.4169533547295796E24,1.4844273240021903E24,1.5519012932752544E24,1.6193752625480786E24,1.68684923182079E24,1.7543232010934004E24,1.8217971703665485E24,1.8892711396390086E24,1.956745108911866E24,2.0242190781850654E24,2.0916930474576606E24,2.1591670167306235E24,2.226640986003263E24,2.2941149552761391E24,2.361588924548761E24,2.4290628938219246E24,2.4965368630946743E24,2.564010832367653E24,2.6314848016402785E24,2.698958770913131E24,2.766432740186266E24,2.833906709459159E24,2.901380678731693E24,2.968854648004278E24,3.036328617277208E24,3.103802586550509E24,3.1712765558230326E24,3.238750525096157E24,3.3062244943689847E24,3.373698463641711E24
-48.55898978343464,6.747436539129409E23,7.422180193041921E23,8.096923846956283E23,8.771667500867501E23,9.446411154779817E23,1.0121154808694199E24,1.0795898462607725E24,1.1470642116519316E24,1.2145385770433482E24,1.2820129424346747E24,1.3494873078258807E24,1.4169616732173586E24,1.4844360386084357E24,1.5519104039999612E24,1.6193847693912541E24,1.6868591347824327E24,1.7543335001735134E24,1.8218078655651266E24,1.8892822309560529E24,1.9567565963473753E24,2.024230961739037E24,2.091705327130096E24,2.159179692521532E24,2.226654057912632E24,2.2941284233039733E24,2.361602788695058E24,2.4290771540866937E24,2.496551519477913E24,2.5640258848693494E24,2.6315002502604443E24,2.6989746156517614E24,2.7664489810433593E24,2.833923346434717E24,2.9013977118257283E24,2.96887207721677E24,3.036346442608179E24,3.1038208079999224E24,3.1712951733909254E24,3.2387695387825083E24,3.3062439041738173E24,3.3737182695650013E24
-48.193161025759814,6.747510240429229E23,7.422261264471718E23,8.097012288516086E23,8.771763312557242E23,9.446514336599575E23,1.0121265360643936E24,1.0796016384687431E24,1.1470767408728986E24,1.2145518432773162E24,1.282026945681637E24,1.3495020480858448E24,1.4169771504903214E24,1.4844522528943922E24,1.551927355298919E24,1.6194024577032153E24,1.686877560107386E24,1.7543526625114612E24,1.8218277649160783E24,1.8893028673200017E24,1.9567779697243194E24,2.0242530721289812E24,2.0917281745330432E24,2.1592032769374736E24,2.2266783793415685E24,2.2941534817459134E24,2.3616285841499997E24,2.42910368655463E24,2.4965787889588483E24,2.564053891363274E24,2.631528993767377E24,2.6990040961716896E24,2.7664791985762857E24,2.833954300980643E24,2.9014294033846403E24,2.9689045057886893E24,3.036379608193088E24,3.103854710597838E24,3.171329813001841E24,3.2388049154064306E24,3.3062800178107287E24,3.373755120214905E24
-48.13711667490875,6.747519323726371E23,7.422271256098593E23,8.097023188472672E23,8.771775120843567E23,9.446527053215594E23,1.0121278985589654E24,1.079603091796288E24,1.1470782850334187E24,1.2145534782708058E24,1.2820286715081005E24,1.3495038647452728E24,1.4169790579827251E24,1.484454251219769E24,1.5519294444572676E24,1.6194046376945328E24,1.686879830931676E24,1.7543550241687298E24,1.8218302174063112E24,1.889305410643204E24,1.956780603880499E24,2.0242557971181267E24,2.0917309903551594E24,2.1592061835925623E24,2.226681376829632E24,2.2941565700669494E24,2.3616317633040004E24,2.4291069565416084E24,2.4965821497787933E24,2.564057343016201E24,2.631532536253265E24,2.6990077294905457E24,2.766482922728124E24,2.8339581159654503E24,2.9014333092024253E24,2.9689085024394395E24,3.0363836956768124E24,3.103858888914535E24,3.171334082151506E24,3.2388092753890657E24,3.3062844686263365E24,3.3737596618634865E24
-48.09269051208295,6.747526910895998E23,7.422279601985178E23,8.097032293076195E23,8.77178498416406E23,9.446537675253051E23,1.0121290366344093E24,1.0796043057434268E24,1.147079574852252E24,1.2145548439613352E24,1.2820301130703268E24,1.3495053821791983E24,1.416980651288342E24,1.4844559203970866E24,1.5519311895062762E24,1.6194064586152374E24,1.6868817277240794E24,1.7543569968328275E24,1.8218322659421083E24,1.889307535050695E24,1.9567828041596866E24,2.0242580732690129E24,2.0917333423777435E24,2.1592086114868418E24,2.2266838805956054E24,2.294159149704615E24,2.3616344188133676E24,2.4291096879226683E24,2.496584957031546E24,2.564060226140654E24,2.6315354952494225E24,2.6990107643583966E24,2.766486033467667E24,2.833961302576684E24,2.9014365716853575E24,2.968911840794074E24,3.0363871099031413E24,3.1038623790125524E24,3.171337648121223E24,3.238812917230475E24,3.306288186339443E24,3.373763455448288E24
-48.02292114091258,6.747537846359289E23,7.42229163099479E23,8.097045415632149E23,8.771799200266347E23,9.446552984901663E23,1.0121306769539027E24,1.0796060554175521E24,1.1470814338810104E24,1.2145568123447273E24,1.2820321908083522E24,1.3495075692718558E24,1.4169829477356346E24,1.4844583261990102E24,1.5519337046628373E24,1.6194090831264273E24,1.6868844615899044E24,1.7543598400532834E24,1.8218352185171934E24,1.889310596980419E24,1.9567859754440447E24,2.0242613539080028E24,2.0917367323713623E24,2.1592121108350935E24,2.2266874892984903E24,2.294162867762135E24,2.3616382462255228E24,2.4291136246894524E24,2.496589003152967E24,2.564064381616705E24,2.631539760080102E24,2.6990151385437117E24,2.7664905170076163E24,2.833965895471269E24,2.9014412739345715E24,2.968916652397918E24,3.03639203086162E24,3.1038674093256745E24,3.171342787788973E24,3.2388181662528546E24,3.3062935447164565E24,3.3737689231799413E24
-47.98465195199832,6.747544121900361E23,7.42229853408994E23,8.09705294628143E23,8.771807358469706E23,9.446561770659155E23,1.0121316182850615E24,1.0796070595041221E24,1.1470825007229916E24,1.214557941942118E24,1.2820333831611546E24,1.34950882438007E24,1.416984265599259E24,1.4844597068180425E24,1.5519351480372812E24,1.619410589256284E24,1.686886030475168E24,1.7543614716939576E24,1.82183691291328E24,1.889312354131916E24,1.9567877953509494E24,2.02426323657032E24,2.091738677789086E24,2.1592141190082346E24,2.226689560227047E24,2.294165001446095E24,2.3616404426648898E24,2.4291158838842334E24,2.496591325103161E24,2.5640667663223097E24,2.631542207541117E24,2.69901764876014E24,2.7664930899794585E24,2.833968531198518E24,2.901443972417239E24,2.9689194136359787E24,3.0363948548550995E24,3.1038702960745624E24,3.171345737293265E24,3.238821178512568E24,3.3062966197315764E24,3.373772060950468E24
-47.9367381802466,6.747550852130382E23,7.422305937342963E23,8.09706102255744E23,8.771816107768751E23,9.446571192981177E23,1.012132627819564E24,1.0796081363409236E24,1.1470836448620928E24,1.214559153383521E24,1.2820346619048568E24,1.349510170426075E24,1.4169856789475646E24,1.484461187468645E24,1.5519366959901844E24,1.6194122045114852E24,1.6868877130326692E24,1.7543632215537673E24,1.821838730075383E24,1.88931423859632E24,1.9567897471176576E24,2.0242652556393232E24,2.0917407641603942E24,2.1592162726818356E24,2.226691781202946E24,2.2941672897243E24,2.3616427982453952E24,2.4291183067670395E24,2.496593815288268E24,2.5640693238097136E24,2.631544832330825E24,2.69902034085215E24,2.766495849373755E24,2.8339713578951293E24,2.901446866416139E24,2.968922374937188E24,3.036397883458604E24,3.103873391980369E24,3.1713489005013706E24,3.2388244090229704E24,3.306299917544282E24,3.3737754260654727E24
-47.79325111666992,6.7475706990485E23,7.422327768952921E23,8.097084838859196E23,8.77184190876231E23,9.446598978666538E23,1.0121356048572836E24,1.0796113118478244E24,1.1470870188381759E24,1.2145627258287865E24,1.2820384328193033E24,1.3495141398096982E24,1.416989846800366E24,1.484465553790636E24,1.5519412607813528E24,1.6194169677718366E24,1.686892674762206E24,1.7543683817524753E24,1.821844088743279E24,1.8893197957333965E24,1.9567955027239108E24,2.0242712097147648E24,2.0917469167050113E24,2.1592226236956387E24,2.226698330685931E24,2.2941740376764643E24,2.3616497446667456E24,2.429125451657572E24,2.4966011586479747E24,2.564076865638607E24,2.631552572628893E24,2.6990282796193965E24,2.7665039866101874E24,2.833979693600732E24,2.901455400590937E24,2.96893110758117E24,3.036406814571767E24,3.1038825215627056E24,3.171358228552897E24,3.238833935543673E24,3.306309642534168E24,3.373785349524537E24
-47.55796303973384,6.7475983753895E23,7.422358212927995E23,8.097118050468386E23,8.771877888005602E23,9.446637725543956E23,1.0121397563084321E24,1.0796157400623842E24,1.1470917238161453E24,1.2145677075701635E24,1.282043691324092E24,1.3495196750778978E24,1.4169956588319804E24,1.4844716425856503E24,1.5519476263397802E24,1.619423610093675E24,1.6868995938474544E24,1.7543755776011352E24,1.8218515613553465E24,1.889327545108876E24,1.9568035288627987E24,2.0242795126170615E24,2.0917554963707246E24,2.1592314801247574E24,2.2267074638784576E24,2.2941834476324023E24,2.361659431386091E24,2.429135415140325E24,2.496611398894141E24,2.564087382648184E24,2.6315633664018825E24,2.6990393501557955E24,2.7665153339099936E24,2.833991317663961E24,2.9014673014175615E24,2.9689432851711997E24,3.036419268925209E24,3.1038952526795605E24,3.171371236433175E24,3.23884722018735E24,3.306323203941259E24,3.373799187695044E24
-47.204483101898575,6.747632424189955E23,7.422395666608497E23,8.097158909028928E23,8.771922151446187E23,9.446685393864566E23,1.0121448636284993E24,1.0796211878704581E24,1.1470975121122214E24,1.2145738363542446E24,1.2820501605961735E24,1.3495264848379893E24,1.417002809080072E24,1.4844791333217525E24,1.5519554575638862E24,1.6194317818057834E24,1.686908106047565E24,1.7543844302892545E24,1.82186075453147E24,1.8893370787730027E24,1.9568134030149288E24,2.0242897272571962E24,2.0917660514988644E24,2.1592423757409052E24,2.2267186999826042E24,2.2941950242245521E24,2.3616713484662493E24,2.4291476727084877E24,2.496623996950306E24,2.5641003211923475E24,2.6315766454340584E24,2.6990529696759787E24,2.76652929391818E24,2.834005618160144E24,2.901481942401764E24,2.968958266643402E24,3.036434590885416E24,3.1039109151277724E24,3.1713872393693764E24,3.2388635636115667E24,3.3063398878534784E24,3.373816212095261E24
-46.696947154048026,6.747666083442248E23,7.422432691786017E23,8.097199300131693E23,8.771965908474156E23,9.446732516817785E23,1.0121499125163459E24,1.079626573350825E24,1.1471032341851119E24,1.214579895019659E24,1.2820565558541132E24,1.3495332166884476E24,1.4170098775230537E24,1.4844865383572547E24,1.551963199191913E24,1.619439860026336E24,1.6869165208606386E24,1.7543931816948458E24,1.8218698425295885E24,1.8893465033636402E24,1.956823164198098E24,2.024299825032886E24,2.0917764858670767E24,2.159253146701638E24,2.2267298075358674E24,2.294206468370335E24,2.3616831292045518E24,2.4291597900393144E24,2.49663645087366E24,2.5641131117082264E24,2.6315897725424446E24,2.699066433376895E24,2.766543094211628E24,2.8340197550461074E24,2.901496415880245E24,2.9689730767144085E24,3.0364497375489493E24,3.103926398383826E24,3.1714030592179537E24,3.238879720052672E24,3.3063563808871E24,3.3738330417214194E24
-46.48683007931149,6.747675698760207E23,7.422443268635812E23,8.097210838513228E23,8.771978408387516E23,9.446745978262939E23,1.0121513548140382E24,1.0796281118016987E24,1.147104868789165E24,1.214581625776889E24,1.2820583827645255E24,1.3495351397520397E24,1.4170118967398235E24,1.4844886537272116E24,1.5519654107150445E24,1.6194421677026433E24,1.6869189246901285E24,1.7543956816775187E24,1.8218724386654365E24,1.8893491956526758E24,1.9568259526403017E24,2.0243027096282756E24,2.0917794666156443E24,2.1592562236033878E24,2.2267329805907896E24,2.2942097375784442E24,2.3616864945658369E24,2.4291632515537755E24,2.496640008541301E24,2.5641167655290515E24,2.631593522516459E24,2.6990702795040795E24,2.766547036491987E24,2.834023793479647E24,2.901500550466964E24,2.9689773074543276E24,3.0364540644420284E24,3.103930821430089E24,3.171407578417397E24,3.2388843354052865E24,3.3063610923929095E24,3.373837849380392E24
-46.3862801007952,6.747679783876147E23,7.422447762263319E23,8.097215740652355E23,8.771983719038234E23,9.446751697425252E23,1.0121519675814272E24,1.0796287654202484E24,1.1471055632588771E24,1.2145823610977625E24,1.2820591589365508E24,1.3495359567752275E24,1.4170127546141696E24,1.484489552452715E24,1.5519663502917117E24,1.6194431481304697E24,1.6869199459691165E24,1.75439674380766E24,1.8218735416467404E24,1.8893503394851403E24,1.956827137323921E24,2.024303935163059E24,2.091780733001585E24,2.1592575308404858E24,2.2267343286790516E24,2.294211126517861E24,2.3616879243564157E24,2.429164722195523E24,2.4966415200342017E24,2.5641183178731017E24,2.6315951157116747E24,2.699071913550455E24,2.766548711389521E24,2.8340255092283393E24,2.9015023070668216E24,2.968979104905331E24,3.0364559027442076E24,3.1039327005834233E24,3.171409498421891E24,3.2388862962609393E24,3.3063630940997115E24,3.373839891938362E24
-46.27359070157932,6.747683723172785E23,7.422452095489618E23,8.097220467808344E23,8.77198884012385E23,9.446757212440546E23,1.0121525584759254E24,1.0796293957077123E24,1.147106232939305E24,1.2145830701711556E24,1.2820599074029177E24,1.3495367446345557E24,1.417013581866466E24,1.484490419097977E24,1.551967256329938E24,1.6194440935616666E24,1.6869209307932728E24,1.7543977680247874E24,1.8218746052568353E24,1.8893514424881967E24,1.956828279719949E24,2.024305116952048E24,2.0917819541835444E24,2.1592587914154136E24,2.226735628646947E24,2.294212465878722E24,2.3616893031102433E24,2.4291661403423084E24,2.496642977573956E24,2.564119814805836E24,2.631596652037364E24,2.6990734892691115E24,2.766550326501144E24,2.834027163732932E24,2.901504000964378E24,2.9689808381958495E24,3.036457675427691E24,3.103934512659876E24,3.171411349891316E24,3.2388881871233333E24,3.3063650243550667E24,3.373841861586683E24
-46.111039551227805,6.747689039005684E23,7.422457942905802E23,8.097226846807805E23,8.771995750706616E23,9.446764654606578E23,1.0121533558508571E24,1.0796302462409722E24,1.1471071366308929E24,1.214584027021077E24,1.2820609174111641E24,1.3495378078011352E24,1.4170146981913727E24,1.4844915885812125E24,1.5519684789715043E24,1.619445369361559E24,1.6869222597514965E24,1.7543991501413414E24,1.8218760405317108E24,1.889352930921404E24,1.9568298213114904E24,2.0243067117019167E24,2.09178360209174E24,2.1592604924819347E24,2.2267373828717943E24,2.2942142732619028E24,2.361691163651754E24,2.429168054042151E24,2.4966449444321234E24,2.564121834822329E24,2.6315987252121916E24,2.6990756156022703E24,2.7665525059926265E24,2.8340293963827455E24,2.9015062867725176E24,2.9689831771623214E24,3.0364600675524934E24,3.1039369579430086E24,3.171413848332767E24,3.238890738723118E24,3.3063676291131807E24,3.3738445195031267E24
-45.847788406093926,6.747694529510923E23,7.422463982461574E23,8.097233435414094E23,8.772002888363446E23,9.446772341313925E23,1.0121541794266447E24,1.0796311247218132E24,1.1471080700167862E24,1.2145850153120204E24,1.282061960607159E24,1.349538905902183E24,1.4170158511974756E24,1.484492796492369E24,1.5519697417877087E24,1.6194466870828156E24,1.686923632377808E24,1.7544005776727035E24,1.821877522968133E24,1.8893544682628749E24,1.9568314135580113E24,2.0243083588534854E24,2.091785304148365E24,2.1592622494436146E24,2.2267391947385272E24,2.2942161400336824E24,2.361693085328592E24,2.429170030624038E24,2.4966469759190675E24,2.5641239212143174E24,2.6316008665092367E24,2.699077811804366E24,2.7665547570997817E24,2.834031702394951E24,2.9015086476897754E24,2.9689855929846324E24,3.036462538279855E24,3.1039394835754174E24,3.1714164288702373E24,3.238893374165631E24,3.306370319460751E24,3.3738472647557483E24
-45.67248540259009,6.747696554616807E23,7.422466210078039E23,8.097235865541165E23,8.772005521001102E23,9.44677517646215E23,1.0121544831925288E24,1.0796314487387532E24,1.1471084142847875E24,1.2145853798310754E24,1.2820623453772768E24,1.3495393109233598E24,1.4170162764697086E24,1.4844932420156596E24,1.5519702075620616E24,1.6194471731082305E24,1.6869241386542765E24,1.7544011042002366E24,1.8218780697467193E24,1.8893550352925197E24,1.9568320008387128E24,2.024308966385251E24,2.0917859319311841E24,2.1592628974774945E24,2.2267398630234616E24,2.2942168285696845E24,2.3616937941156427E24,2.429170759662149E24,2.49664772520824E24,2.564124690754553E24,2.6316016563005325E24,2.6990786218467197E24,2.766555587393184E24,2.834032552939417E24,2.9015095184853017E24,2.968986484031217E24,3.036463449577499E24,3.103940415124123E24,3.1714173806699936E24,3.238894346216461E24,3.3063713117626326E24,3.373848277308688E24
-45.58974846959217,6.747697196277597E23,7.422466915904907E23,8.097236635534117E23,8.772006355160144E23,9.446776074787289E23,1.012154579441647E24,1.079631551404482E24,1.1471085233671211E24,1.214585495330023E24,1.2820624672928266E24,1.349539439255518E24,1.4170164112184793E24,1.484493383181034E24,1.5519703551440495E24,1.6194473271068207E24,1.68692429906948E24,1.7544012710320433E24,1.8218782429951377E24,1.889355214957547E24,1.9568321869203514E24,2.0243091588834955E24,2.0917861308460374E24,2.1592631028089505E24,2.2267400747715357E24,2.2942170467343568E24,2.3616940186969325E24,2.429170990660044E24,2.4966479626227425E24,2.564124934585654E24,2.6316019065482424E24,2.699078878511036E24,2.7665558504741224E24,2.8340328224369585E24,2.901509794399454E24,2.968986766361966E24,3.03646373832486E24,3.103940710288099E24,3.171417682250568E24,3.2388946542136414E24,3.3063716261764243E24,3.3738485981390914E24
-45.53834463957124,6.74769788296897E23,7.422467671265454E23,8.097237459563753E23,8.772007247858926E23,9.446777036155208E23,1.0121546824453536E24,1.0796316612751015E24,1.1471086401046574E24,1.214585618934469E24,1.2820625977641937E24,1.3495395765937927E24,1.41701655542367E24,1.484493534253139E24,1.551970513083059E24,1.6194474919127488E24,1.6869244707423222E24,1.7544014495718015E24,1.8218784284018103E24,1.8893554072311307E24,1.9568323860608464E24,2.0243093648909052E24,2.091786343720363E24,2.1592633225501925E24,2.2267403013796833E24,2.294217280209424E24,2.3616942590389143E24,2.4291712378689355E24,2.4966482166985476E24,2.5641251955283874E24,2.6316021743578776E24,2.6990791531875853E24,2.766556132017579E24,2.83403311084734E24,2.901510089676739E24,2.9689870685061836E24,3.036464047335969E24,3.103941026166118E24,3.1714180049955203E24,3.2388949838254975E24,3.306371962655198E24,3.3738489414847846E24
-45.17416018996512,6.747698715254415E23,7.422468586779406E23,8.097238458306258E23,8.77200832982996E23,9.446778201354821E23,1.0121548072881681E24,1.0796317944407698E24,1.1471087815931786E24,1.2145857687458492E24,1.2820627558984216E24,1.349539743050881E24,1.417016730203608E24,1.4844937173559317E24,1.5519707045087105E24,1.6194476916612509E24,1.686924678813676E24,1.7544016659660074E24,1.8218786531188742E24,1.8893556402710498E24,1.9568326274236203E24,2.0243096145765347E24,2.0917866017288455E24,2.1592635888815274E24,2.2267405760338767E24,2.2942175631864676E24,2.3616945503388142E24,2.429171537491696E24,2.496648524644155E24,2.564125511796843E24,2.631602498949195E24,2.699079486101762E24,2.7665564732546056E24,2.834033460407216E24,2.901510447559465E24,2.968987434711764E24,3.036464421864411E24,3.103941409017421E24,3.1714183961696725E24,3.2388953833225017E24,3.306372370475066E24,3.37384935762749E24