% Model:              version04.mph
% Version:            COMSOL 6.1.0.252
% Date:               Aug 30 2023, 16:44
% Dimension:          1
% Nodes:              1649
% Expressions:        21
% Description:        Line graph
% x-coordinate (mm)       Number density reconstruction Number density reconstruction Number density reconstruction Number density reconstruction Number density reconstruction Number density reconstruction Number density reconstruction Number density reconstruction Number density reconstruction Number density reconstruction Number density reconstruction Number density reconstruction Number density reconstruction Number density reconstruction Number density reconstruction Number density reconstruction Number density reconstruction Number density reconstruction Number density reconstruction Number density reconstruction Number density reconstruction
-34.5                     1.2346657574834799E19    4.292841721601086E19     7.351017685718711E19     1.0409193649836312E20    1.3467369613953928E20    1.6525545578071536E20    1.9583721542189154E20    2.264189750630673E20     2.5700073470424377E20    2.8758249434542E20       3.181642539865966E20     3.4874601362777263E20    3.793277732689487E20     4.099095329101247E20     4.404912925513014E20     4.71073052192478E20      5.01654811833653E20      5.3223657147482885E20    5.628183311160053E20     5.934000907571813E20     6.239818503983581E20
-33.47822531757974        2.4698785807036166E19    5.925481161238202E19     9.381083741772798E19     1.2836686322307378E20    1.629228890284201E20     1.97478914833766E20      2.3203494063911204E20    2.665909664444576E20     3.011469922498036E20     3.357030180551495E20     3.7025904386049547E20    4.048150696658416E20     4.3937109547118703E20    4.73927121276533E20      5.084831470818796E20     5.43039172887226E20      5.775951986925707E20     6.121512244979166E20     6.467072503032628E20     6.812632761086092E20     7.158193019139549E20
-33.4171640518279         2.4698654287010406E19    6.030914805491328E19     9.591964182281627E19     1.3153013559071911E20    1.6714062935862257E20    2.0275112312652546E20    2.383616168944286E20     2.7397211066233117E20    3.0958260443023435E20    3.451930981981373E20     3.808035919660405E20     4.1641408573394354E20    4.520245795018462E20     4.8763507326974906E20    5.232455670376526E20     5.588560608055561E20     5.94466554573458E20      6.300770483413611E20     6.656875421092643E20     7.012980358771674E20     7.3690852964507E20
-33.25800570473669        2.469842264265516E19     5.631424400847873E19     8.793006537430249E19     1.1954588674012606E20    1.5116170810594977E20    1.8277752947177387E20    2.1439335083759767E20    2.4600917220342107E20    2.77624993569245E20      3.0924081493506864E20    3.4085663630089224E20    3.724724576667161E20     4.040882790325395E20     4.357041003983631E20     4.673199217641873E20     4.989357431300113E20     5.3055156449583405E20    5.6216738586165766E20    5.937832072274817E20     6.253990285933058E20     6.570148499591293E20
-33.19138668253141        2.4698260537730974E19    5.652824961797773E19     8.835823869822457E19     1.2018822777847131E20    1.520182168587182E20     1.8384820593896522E20    2.1567819501921216E20    2.475081840994587E20     2.7933817317970575E20    3.111681622599527E20     3.429981513401996E20     3.7482814042044655E20    4.06658129500693E20      4.384881185809397E20     4.703181076611872E20     5.021480967414344E20     5.339780858216802E20     5.658080749019269E20     5.976380639821743E20     6.29468053062421E20      6.612980421426676E20
-33.16187162278615        2.4698230078659854E19    5.6635342953258746E19    8.857245582785774E19     1.205095687024566E20     1.5244668157705562E20    1.8438379445165497E20    2.1632090732625406E20    2.4825802020085272E20    2.8019513307545197E20    3.1213224595005086E20    3.440693588246501E20     3.76006471699249E20      4.079435845738478E20     4.3988069744844656E20    4.7181781032304633E20    5.0375492319764565E20    5.3569203607224366E20    5.6762914894684245E20    5.995662618214421E20     6.315033746960406E20     6.634404875706396E20
-32.456450635159484       2.4696724934244758E19    6.3863554717939425E19    1.0303038450163438E20    1.4219721428532902E20    1.81364044069024E20      2.2053087385271894E20    2.5969770363641378E20    2.988645334201082E20     3.3803136320380305E20    3.77198192987498E20      4.1636502277119305E20    4.5553185255488815E20    4.946986823385821E20     5.33865512122277E20      5.7303234190597285E20    6.121991716896679E20     6.513660014733613E20     6.905328312570564E20     7.296996610407511E20     7.688664908244462E20     8.080333206081413E20
-32.016011409473386       2.4695698254603117E19    5.8452617213019275E19    9.220953617143587E19     1.25966455129852E20      1.5972337408826855E20    1.9348029304668488E20    2.2723721200510124E20    2.609941309635172E20     2.947510499219337E20     3.2850796888035E20       3.622648878387666E20     3.960218067971833E20     4.2977872575559886E20    4.635356447140148E20     4.9729256367243244E20    5.31049482630849E20      5.6480640158926406E20    5.985633205476803E20     6.323202395060972E20     6.66077158464514E20      6.998340774229306E20
-31.394072101886202       2.469372464144095E19     6.182197596989908E19     9.895022729835743E19     1.3607847862681562E20    1.73206729955274E20      2.103349812837324E20     2.4746323261219065E20    2.8459148394064868E20    3.217197352691076E20     3.588479865975659E20     3.9597623792602435E20    4.3310448925448326E20    4.7023274058294074E20    5.073609919113988E20     5.4448924323985844E20    5.8161749456831696E20    6.187457458967734E20     6.558739972252316E20     6.930022485536902E20     7.301304998821493E20     7.672587512106077E20
-31.377700453167684       2.4693660699427963E19    6.182492790794792E19     9.895619511646834E19     1.3608746232498841E20    1.7321872953350865E20    2.1034999674202895E20    2.4748126395054906E20    2.8461253115906897E20    3.217437983675895E20     3.5887506557610964E20    3.9600633278463E20       4.3313759999315077E20    4.702688672016701E20     5.0740013441019006E20    5.445314016187116E20     5.81662668827232E20      6.187939360357497E20     6.559252032442698E20     6.930564704527902E20     7.301877376613114E20     7.673190048698316E20
-31.334556097672827       2.469355894213746E19     6.2036539848239055E19    9.937952075434109E19     1.367225016604428E20     1.7406548256654482E20    2.114084634726468E20     2.4875144437874865E20    2.8609442528485016E20    3.234374061909523E20     3.6078038709705435E20    3.9812336800315625E20    4.354663489092588E20     4.7280932981535985E20    5.1015231072146135E20    5.474952916275645E20     5.848382725336663E20     6.221812534397663E20     6.59524234345868E20      6.968672152519699E20     7.342101961580728E20     7.715531770641746E20
-30.91494356811135        2.469186410905878E19     6.321584700190896E19     1.017398298947598E20     1.4026381278761017E20    1.787877956804612E20     2.1731177857331197E20    2.558357614661625E20     2.943597443590126E20     3.328837272518625E20     3.714077101447132E20     4.09931693037564E20      4.4845567593041494E20    4.869796588232649E20     5.255036417161148E20     5.640276246089669E20     6.025516075018182E20     6.410755903946671E20     6.79599573287518E20      7.181235561803679E20     7.566475390732193E20     7.951715219660699E20
-30.760761973742632       2.469118245706376E19     6.381070218610475E19     1.0293022191514622E20    1.4204974164418748E20    1.8116926137322894E20    2.2028878110227048E20    2.5940830083131182E20    2.9852782056035274E20    3.3764734028939526E20    3.767668600184364E20     4.158863797474779E20     4.550058994765198E20     4.941254192055606E20     5.3324493893460125E20    5.7236445866364384E20    6.114839783926864E20     6.506034981217255E20     6.89723017850767E20      7.288425375798082E20     7.6796205730885E20       8.070815770378915E20
-30.451991643895926       2.4689789402925343E19    6.515737132308519E19     1.056249532432455E20     1.4609253516340552E20    1.8656011708356615E20    2.270276990037265E20     2.674952809238867E20     3.0796286284404674E20    3.484304447642071E20     3.888980266843674E20     4.293656086045277E20     4.6983319052468847E20    5.10300772444848E20      5.5076835436500746E20    5.91235936285169E20      6.317035182053299E20     6.721711001254876E20     7.126386820456482E20     7.531062639658077E20     7.935738458859688E20     8.340414278061291E20
-30.382460471765572       2.468938369286098E19     6.6138435026262245E19    1.0758748635966397E20    1.490365376930653E20     1.904855890264671E20     2.3193464035986892E20    2.7338369169327047E20    3.1483274302667175E20    3.562817943600735E20     3.977308456934751E20     4.3917989702687687E20    4.806289483602789E20     5.2207799969367976E20    5.635270510270808E20     6.049761023604838E20     6.464251536938874E20     6.878742050272861E20     7.29323256360688E20      7.70772307694089E20      8.122213590274914E20     8.536704103608931E20
-30.24525308967175        2.4688668898335826E19    6.666308468657032E19     1.0863750047480547E20    1.5061191626304025E20    1.9258633205127522E20    2.3456074783951045E20    2.7653516362774528E20    3.185095794159801E20     3.604839952042154E20     4.024584109924502E20     4.4443282678068543E20    4.864072425689207E20     5.2838165835715523E20    5.7035607414538935E20    6.123304899336257E20     6.543049057218612E20     6.962793215100935E20     7.382537372983287E20     7.80228153086563E20      8.22202568874799E20      8.64176984663034E20
-29.934803419390587       2.4686752254984598E19    6.376877437251354E19     1.0285079649004326E20    1.4193281860757245E20    1.810148407251019E20     2.200968628426315E20     2.5917888496016094E20    2.982609070776899E20     3.3734292919521935E20    3.7642495131274884E20    4.155069734302784E20     4.545889955478083E20     4.9367101766533716E20    5.32753039782866E20      5.718350619003964E20     6.109170840179269E20     6.499991061354539E20     6.890811282529837E20     7.281631503705127E20     7.672451724880427E20     8.063271946055722E20
-29.830196358574263       2.4686057436561514E19    6.870075611790114E19     1.1271545479924153E20    1.5673015348058148E20    2.0074485216192145E20    2.4475955084326168E20    2.887742495246017E20     3.3278894820594175E20    3.76803646887282E20      4.2081834556862235E20    4.648330442499623E20     5.088477429313029E20     5.528624416126426E20     5.968771402939822E20     6.408918389753225E20     6.849065376566633E20     7.289212363380012E20     7.729359350193413E20     8.169506337006808E20     8.609653323820216E20     9.049800310633618E20
-29.453494063086417       2.46833350429904E19      6.9420778967789625E19    1.141582228925897E20     1.5889566681738926E20    2.03633110742189E20      2.483705546669888E20     2.931079985917886E20     3.3784544251658804E20    3.825828864413878E20     4.273203303661877E20     4.7205777429098745E20    5.1679521821578795E20    5.615326621405871E20     6.062701060653865E20     6.510075499901881E20     6.957449939149881E20     7.404824378397858E20     7.852198817645863E20     8.299573256893855E20     8.746947696141856E20     9.194322135389855E20
-29.162595671505873       2.4680767085045424E19    7.029162716105898E19     1.1590248723707352E20    1.6151334731308722E20    2.071242073891015E20     2.5273506746511573E20    2.9834592754112974E20    3.439567876171443E20     3.895676476931584E20     4.3517850776917246E20    4.8078936784518663E20    5.264002279212015E20     5.7201108799721505E20    6.176219480732285E20     6.632328081492446E20     7.088436682252587E20     7.544545283012712E20     8.000653883772857E20     8.456762484532996E20     8.912871085293141E20     9.368979686053288E20
-28.902637453675297       2.4678001807911686E19    7.105651489546179E19     1.1743502798301272E20    1.6381354107056292E20    2.1019205415811387E20    2.5657056724566465E20    3.029490803332154E20     3.493275934207667E20     3.957061065083176E20     4.4208461959586814E20    4.884631326834191E20     5.348416457709706E20     5.812201588585209E20     6.275986719460708E20     6.739771850336237E20     7.203556981211743E20     7.667342112087234E20     8.13112724296275E20      8.594912373838251E20     9.058697504713761E20     9.522482635589275E20
-28.870983968454546       2.4677676293091394E19    7.123025153626191E19     1.1778282677943352E20    1.6433540202260464E20    2.10887977265776E20      2.5744055250894723E20    3.0399312775211857E20    3.505457029952896E20     3.97098278238461E20      4.43650853481632E20      4.902034287248036E20     5.367560039679754E20     5.833085792111462E20     6.298611544543164E20     6.7641372969749E20       7.229663049406608E20     7.695188801838306E20     8.160714554270026E20     8.626240306701735E20     9.091766059133448E20     9.557291811565167E20
-28.821791678639897       2.467712387721431E19     7.1374770119290405E19    1.1807241636136768E20    1.6477006260344422E20    2.114677088455213E20     2.581653550875981E20     3.0486300132967494E20    3.515606475717515E20     3.982582938138286E20     4.449559400559052E20     4.916535862979823E20     5.3835123254005976E20    5.8504887878213625E20    6.317465250242134E20     6.784441712662924E20     7.251418175083694E20     7.718394637504443E20     8.18537109992522E20      8.652347562345984E20     9.119324024766754E20     9.586300487187528E20
-28.73408418518801        2.4676145410396656E19    7.1543027402185564E19    1.184099093939756E20     1.6527679138576482E20    2.1214367337755466E20    2.590105553693442E20     3.058774373611342E20     3.527443193529237E20     3.9961120134471365E20    4.46478083336503E20      4.93344965328293E20      5.402118473200831E20     5.8707872931187235E20    6.339456113036604E20     6.808124932954522E20     7.276793752872418E20     7.745462572790296E20     8.214131392708199E20     8.682800212626093E20     9.15146903254399E20      9.620137852461894E20
-28.665848829051107       2.467534054016078E19     7.178576745195909E19     1.1889619436375826E20    1.6600662127555723E20    2.1311704818735645E20    2.602274750991554E20     3.073379020109543E20     3.54448328922753E20      4.0155875583455245E20    4.4866918274635104E20    4.9577960965815055E20    5.4289003656995006E20    5.900004634817486E20     6.371108903935468E20     6.842213173053476E20     7.313317442171469E20     7.784421711289441E20     8.255525980407438E20     8.726630249525424E20     9.197734518643416E20     9.668838787761411E20
-28.156523698071894       2.4667788931594187E19    7.342221904021781E19     1.2217664914884252E20    1.7093107925746677E20    2.1968550936609145E20    2.6843993947471593E20    3.171943695833407E20     3.659487996919651E20     4.147032298005898E20     4.6345765990921463E20    5.12212090017839E20      5.60966520126464E20      6.097209502350884E20     6.584753803437121E20     7.072298104523379E20     7.559842405609628E20     8.04738670669585E20      8.534931007782105E20     9.02247530886835E20      9.510019609954589E20     9.997563911040854E20
-28.13513292954387        2.4667315473492898E19    7.345644230632225E19     1.2224556913915262E20    1.7103469597198277E20    2.198238228048132E20     2.6861294963764347E20    3.1740207647047385E20    3.661912033033039E20     4.149803301361344E20     4.6376945696896496E20    5.1255858380179505E20    5.613477106346259E20     6.101368374674555E20     6.589259643002842E20     7.077150911331158E20     7.565042179659466E20     8.052933447987745E20     8.540824716316056E20     9.028715984644359E20     9.516607252972656E20     1.0004498521300979E21
-27.93515295201128        2.466354892517764E19     7.388393219625851E19     1.2310431546734068E20    1.7232469873842245E20    2.215450820095045E20     2.7076546528058655E20    3.199858485516683E20     3.692062318227501E20     4.184266150938322E20     4.676469983649143E20     5.168673816359963E20     5.660877649070789E20     6.153081481781611E20     6.645285314492418E20     7.137489147203254E20     7.629692979914074E20     8.121896812624874E20     8.614100645335702E20     9.106304478046514E20     9.598508310757335E20     1.0090712143468172E21
-27.765395705844035       2.4659847801611444E19    7.550861392249066E19     1.2635738004337153E20    1.772061461642514E20     2.28054912285132E20      2.789036784060124E20     3.297524445268931E20     3.806012106477732E20     4.314499767686536E20     4.822987428895344E20     5.3314750901041463E20    5.83996275131296E20      6.348450412521761E20     6.856938073730552E20     7.365425734939376E20     7.873913396148181E20     8.382401057356962E20     8.890888718565777E20     9.399376379774574E20     9.907864040983379E20     1.0416351702192199E21
-27.632717299226105       2.465659787740932E19     7.595401473087028E19     1.2725143158433276E20    1.7854884843779503E20    2.298462652912574E20     2.8114368214471967E20    3.324410989981822E20     3.837385158516438E20     4.350359327051061E20     4.8633334955856875E20    5.3763076641203094E20    5.8892818326549365E20    6.402256001189556E20     6.915230169724166E20     7.428204338258809E20     7.941178506793434E20     8.454152675328034E20     8.967126843862663E20     9.480101012397282E20     9.993075180931908E20     1.050604934946654E21
-27.593472186828162       2.46555096428819E19      7.640671912876E19        1.2815792861463962E20    1.7990913810051875E20    2.3166034758639836E20    2.834115570722777E20     3.3516276655815773E20    3.8691397604403655E20    4.386651855299162E20     4.904163950157958E20     5.4216760450167505E20    5.939188139875552E20     6.456700234734342E20     6.974212329593122E20     7.491724424451938E20     8.009236519310734E20     8.526748614169503E20     9.044260709028303E20     9.561772803887094E20     1.0079284898745892E21    1.0596796993604695E21
-27.556922449148995       2.4654696837997056E19    7.647521457266198E19     1.282957323073284E20     1.8011625004199428E20    2.3193676777666078E20    2.8375728551132692E20    3.3557780324599294E20    3.873983209806587E20     4.392188387153251E20     4.910393564499914E20     5.4285987418465744E20    5.946803919193241E20     6.465009096539906E20     6.983214273886555E20     7.501419451233238E20     8.019624628579902E20     8.537829805926538E20     9.056034983273208E20     9.574240160619868E20     1.0092445337966532E21    1.0610650515313202E21
-27.538142997804137       2.4654229341452517E19    7.681763053656927E19     1.2898103173168759E20    1.8114443292680523E20    2.333078341219236E20     2.8547123531704153E20    3.3763463651216E20       3.897980377072777E20     4.419614389023959E20     4.941248400975141E20     5.4628824129263206E20    5.984516424877509E20     6.50615043682868E20      7.027784448779848E20     7.549418460731049E20     8.071052472682233E20     8.59268648463339E20      9.114320496584575E20     9.635954508535755E20     1.0157588520486938E21    1.0679222532438127E21
-27.144045445415635       2.464116024121295E19     7.892537144313602E19     1.3320958264506075E20    1.8749379384698546E20    2.4177800504891035E20    2.960622162508351E20     3.503464274527595E20     4.046306386546837E20     4.589148498566089E20     5.131990610585334E20     5.674832722604577E20     6.217674834623838E20     6.760516946643077E20     7.303359058662316E20     7.846201170681581E20     8.389043282700833E20     8.931885394720052E20     9.474727506739309E20     1.0017569618758548E21    1.05604117307778E21      1.1103253842797053E21
-26.984088507173627       2.463445426210192E19     8.009550868409793E19     1.3555656310609596E20    1.9101761752809357E20    2.4647867195009152E20    3.019397263720895E20     3.574007807940875E20     4.1286183521608506E20    4.6832288963808304E20    5.237839440600813E20     5.7924499848207866E20    6.347060529040778E20     6.901671073260751E20     7.456281617480723E20     8.010892161700721E20     8.5655027059207E20       9.120113250140652E20     9.674723794360642E20     1.0229334338580607E21    1.0783944882800597E21    1.1338555427020584E21
-26.91759993157569        2.463147591140702E19     8.038466921598275E19     1.3613786252056044E20    1.918910558251376E20     2.4764424912971553E20    3.0339744243429324E20    3.591506357388708E20     4.1490382904344805E20    4.706570223480257E20     5.264102156526038E20     5.8216340895718094E20    6.379166022617599E20     6.936697955663354E20     7.494229888709127E20     8.051761821754925E20     8.609293754800694E20     9.166825687846449E20     9.724357620892229E20     1.0281889553937997E21    1.0839421486983785E21    1.1396953420029567E21
-26.808735465508764       2.462587137103523E19     8.167057567206585E19     1.3871527997309862E20    1.9575998427413116E20    2.5280468857516422E20    3.0984939287619686E20    3.668940971772293E20     4.239388014782617E20     4.809835057792944E20     5.380282100803273E20     5.950729143813595E20     6.521176186823926E20     7.091623229834242E20     7.662070272844568E20     8.23251731585491E20      8.802964358865237E20     9.373411401875539E20     9.943858444885872E20     1.0514305487896189E21    1.108475253090652E21     1.1655199573916866E21
-26.750339219674615       2.4622724055938384E19    8.188522544245604E19     1.3914772682897611E20    1.9641022821549562E20    2.5367272960201576E20    3.109352309885354E20     3.6819773237505504E20    4.254602337615744E20     4.827227351480943E20     5.3998523653461436E20    5.97247737921134E20      6.545102393076552E20     7.117727406941737E20     7.690352420806935E20     8.262977434672148E20     8.835602448537346E20     9.40822746240252E20      9.980852476267727E20     1.0553477490132914E21    1.112610250399812E21     1.1698727517863336E21
-26.584187308750852       2.461224413341812E19     8.247497010680052E19     1.403376960801853E20     1.9820042205356986E20    2.560631480269547E20     3.139258740003393E20     3.7178859997372436E20    4.296513259471083E20     4.875140519204934E20     5.453767778938783E20     6.032395038672621E20     6.61102229840648E20      7.189649558140313E20     7.768276817874152E20     8.34690407760802E20      8.925531337341865E20     9.504158597075687E20     1.0082785856809547E21    1.0661413116543385E21    1.1240040376277235E21    1.1818667636011096E21
-26.494400224519556       2.4605750297678967E19    8.325502753753488E19     1.419043047773934E20     2.005535820172513E20     2.592028592571099E20     3.178521364969679E20     3.765014137368264E20     4.35150690976684E20      4.937999682165424E20     5.524492454564012E20     6.110985226962603E20     6.697477999361196E20     7.283970771759761E20     7.87046354415834E20      8.456956316556941E20     9.04344908895552E20      9.629941861354082E20     1.0216434633752681E21    1.0802927406151259E21    1.138942017854984E21     1.1975912950948425E21
-26.430752543113584       2.4600645120117006E19    8.347550404874568E19     1.423503629773772E20     2.0122522190600795E20    2.601000808346394E20     3.1897493976327094E20    3.77849798691903E20      4.367246576205337E20     4.955995165491649E20     5.5447437547779654E20    6.133492344064276E20     6.722240933350596E20     7.310989522636888E20     7.899738111923197E20     8.488486701209525E20     9.077235290495836E20     9.665983879782127E20     1.0254732469068455E21    1.0843481058354762E21    1.1432229647641071E21    1.2020978236927396E21
-26.356632993933594       2.4594248831134515E19    8.427955804321563E19     1.4396486725529988E20    2.0365017646738352E20    2.633354856794675E20     3.230207948915512E20     3.827061041036352E20     4.423914133157184E20     5.020767225278024E20     5.617620317398865E20     6.214473409519704E20     6.811326501640565E20     7.408179593761385E20     8.005032685882224E20     8.601885778003079E20     9.19873887012392E20      9.795591962244731E20     1.0392445054365589E21    1.0989298146486412E21    1.1586151238607254E21    1.218300433072811E21
-26.3253321633623         2.459133113162333E19     8.481069903303521E19     1.4503006693445004E20    2.0524943483586406E20    2.654688027372787E20     3.256881706386935E20     3.8590753854010937E20    4.4612690644152313E20    5.063462743429378E20     5.665656422443525E20     6.26785010145767E20      6.870043780471811E20     7.472237459485936E20     8.074431138500082E20     8.676624817514246E20     9.278818496528392E20     9.881012175542514E20     1.0483205854556676E21    1.1085399533570808E21    1.1687593212584956E21    1.2289786891599117E21
-26.302421122534565       2.458928449234369E19     8.495795055474967E19     1.4532661661715874E20    2.0569528267956765E20    2.6606394874197652E20    3.264326148043852E20     3.8680128086679395E20    4.471699469292022E20     5.075386129916114E20     5.6790727905402015E20    6.2827594511643E20       6.886446111788403E20     7.490132772412471E20     8.09381943303656E20      8.697506093660668E20     9.301192754284761E20     9.904879414908821E20     1.050856607553293E21     1.1112252736157001E21    1.1715939396781094E21    1.2319626057405188E21
-25.871022836123853       2.4531559762400416E19    8.979915085375062E19     1.5506674194510483E20    2.203343330364586E20     2.856019241278126E20     3.508695152191665E20     4.161371063105206E20     4.814046974018736E20     5.4667228849322806E20    6.119398795845817E20     6.772074706759348E20     7.424750617672906E20     8.07742652858643E20      8.730102439499964E20     9.382778350413527E20     1.003545426132706E21     1.0688130172240568E21    1.1340806083154124E21    1.1993481994067648E21    1.2646157904981202E21    1.3298833815894753E21
-25.84753340958893        2.4527095671867298E19    9.0040825185655E19       1.5555455469944665E20    2.2106828421323794E20    2.8658201372702956E20    3.520957432408215E20     4.1760947275461276E20    4.831232022684037E20     5.4863693178219535E20    6.141506612959874E20     6.796643908097779E20     7.451781203235709E20     8.106918498373607E20     8.762055793511516E20     9.417193088649457E20     1.007233038378737E21     1.0727467678925251E21    1.1382604974063178E21    1.2037742269201071E21    1.2692879564339001E21    1.3348016859476934E21
-25.729616208965606       2.4502238747474567E19    9.139518469600133E19     1.5828813064453213E20    2.251810765930625E20     2.9207402254159338E20    3.589669684901242E20     4.258599144386548E20     4.927528603871855E20     5.5964580633571616E20    6.265387522842477E20     6.934316982327779E20     7.603246441813093E20     8.272175901298381E20     8.941105360783683E20     9.610034820269015E20     1.0278964279754325E21    1.094789373923959E21     1.1616823198724924E21    1.2285752658210193E21    1.2954682117695521E21    1.3623611577180847E21
-25.538334160742888       2.444784767902258E19     9.463088028166203E19     1.6481391288430566E20    2.349969454869493E20     3.0517997808959324E20    3.753630106922372E20     4.455460432948806E20     5.15729075897524E20      5.859121085001681E20     6.560951411028115E20     7.262781737054554E20     7.964612063081001E20     8.666442389107423E20     9.368272715133851E20     1.0070103041160314E21    1.0771933367186751E21    1.147376369321315E21     1.2175594019239612E21    1.2877424345266035E21    1.357925467129247E21     1.4281084997318942E21
-25.47827685670086        2.4425798399082856E19    9.575689553864484E19     1.670879926782113E20     2.384190898177772E20     3.0975018695734336E20    3.810812840969095E20     4.5241238123647625E20    5.2374347837604174E20    5.95074575515608E20      6.664056726551749E20     7.377367697947418E20     8.090678669343088E20     8.803989640738737E20     9.517300612134387E20     1.0230611583530081E21    1.094392255492574E21     1.1657233526321364E21    1.2370544497717045E21    1.308385546911269E21     1.3797166440508343E21    1.451047741190403E21
-25.415860861979684       2.4399494900579504E19    9.70703352008894E19      1.6974117550120396E20    2.424120158015179E20     3.150828561018327E20     3.877536964021472E20     4.6042453670246174E20    5.330953770027756E20     6.057662173030901E20     6.784370576034035E20     7.511078979037186E20     8.237787382040343E20     8.964495785043468E20     9.691204188046603E20     1.0417912591049774E21    1.1144620994052922E21    1.187132939705602E21     1.2598037800059176E21    1.3324746203062306E21    1.405145460606545E21     1.477816300906863E21
-25.373566922448006       2.4379453556197843E19    9.783255181235284E19     1.712856500685126E20     2.4473874832467152E20    3.181918465808311E20     3.916449448369906E20     4.6509804309315033E20    5.385511413493092E20     6.120042396054684E20     6.854573378616274E20     7.589104361177872E20     8.323635343739484E20     9.058166326301053E20     9.792697308862642E20     1.0527228291424264E21    1.1261759273985861E21    1.1996290256547438E21    1.273082123910904E21     1.346535222167063E21     1.419988320423222E21     1.4934414186793848E21
-25.356663897254723       2.4370800872248513E19    9.831176013047241E19     1.7225271938870113E20    2.4619367864692913E20    3.201346379051578E20     3.9407559716338663E20    4.680165564216152E20     5.4195751567984316E20    6.158984749380718E20     6.898394341963002E20     7.63780393454529E20      8.37721352712759E20      9.116623119709853E20     9.856032712292126E20     1.0595442304874446E21    1.1334851897456732E21    1.2074261490038979E21    1.2813671082621275E21    1.3553080675203547E21    1.4292490267785835E21    1.503189986036815E21
-25.34888555767511        2.4366830519269224E19    9.844108858322836E19     1.7251534664719195E20    2.4658960471115524E20    3.206638627751194E20     3.9473812083908307E20    4.688123789030468E20     5.4288663696701004E20    6.169608950309732E20     6.910351530949368E20     7.651094111589003E20     8.391836692228658E20     9.132579272868274E20     9.873321853507894E20     1.0614064434147565E21    1.1354807014787205E21    1.209554959542681E21     1.283629217606646E21     1.3577034756706075E21    1.4317777337345714E21    1.505851991798538E21