% Model:              version04.mph
% Version:            COMSOL 6.1.0.252
% Date:               Aug 30 2023, 12:28
% Dimension:          1
% Nodes:              1649
% Expressions:        41
% Description:        Line graph
% x-coordinate (mm)       Number density reconstruction Number density reconstruction Number density reconstruction Number density reconstruction Number density reconstruction Number density reconstruction Number density reconstruction Number density reconstruction Number density reconstruction Number density reconstruction Number density reconstruction Number density reconstruction Number density reconstruction Number density reconstruction Number density reconstruction Number density reconstruction Number density reconstruction Number density reconstruction Number density reconstruction Number density reconstruction Number density reconstruction Number density reconstruction Number density reconstruction Number density reconstruction Number density reconstruction Number density reconstruction Number density reconstruction Number density reconstruction Number density reconstruction Number density reconstruction Number density reconstruction Number density reconstruction Number density reconstruction Number density reconstruction Number density reconstruction Number density reconstruction Number density reconstruction Number density reconstruction Number density reconstruction Number density reconstruction Number density reconstruction
-34.5                     6.239818503983584E20     6.8514536968071E20       7.463088889630639E20     8.074724082454147E20     8.686359275277678E20     9.297994468101213E20     9.909629660924724E20     1.052126485374826E21     1.1132900046571776E21    1.174453523939529E21     1.2356170432218802E21    1.2967805625042298E21    1.3579440817865855E21    1.419107601068936E21     1.4802711203512912E21    1.5414346396336406E21    1.6025981589159975E21    1.6637616781983456E21    1.7249251974807007E21    1.7860887167630532E21    1.8472522360454043E21    1.9084157553277545E21    1.969579274610108E21     2.0307427938924592E21    2.0919063131748106E21    2.1530698324571597E21    2.2142333517395164E21    2.2753968710218694E21    2.3365603903042198E21    2.397723909586578E21     2.4588874288689305E21    2.520050948151278E21     2.58121446743363E21      2.6423779867159833E21    2.703541505998339E21     2.764705025280689E21     2.825868544563043E21     2.8870320638453953E21    2.9481955831277415E21    3.0093591024101003E21    3.0705226216924497E21
-33.47822531757974        7.158193019139551E20     7.849313535246462E20     8.540434051353398E20     9.231554567460305E20     9.922675083567231E20     1.0613795599674163E21    1.1304916115781073E21    1.1996036631888006E21    1.2687157147994916E21    1.3378277664101821E21    1.406939818020875E21     1.476051869631565E21     1.5451639212422597E21    1.6142759728529502E21    1.6833880244636457E21    1.7525000760743347E21    1.8216121276850307E21    1.890724179295717E21     1.9598362309064133E21    2.0289482825171046E21    2.0980603341277967E21    2.1671723857384862E21    2.2362844373491778E21    2.3053964889598698E21    2.3745085405705614E21    2.4436205921812485E21    2.5127326437919445E21    2.5818446954026374E21    2.650956747013326E21     2.720068798624021E21     2.7891808502347155E21    2.8582929018454006E21    2.9274049534560934E21    2.996517005066786E21     3.065629056677481E21     3.134741108288171E21     3.2038531598988655E21    3.2729652115095594E21    3.3420772631202413E21    3.4111893147309404E21    3.48030136634163E21
-33.4171640518279         7.369085296450702E20     8.081295171808752E20     8.793505047166833E20     9.505714922524878E20     1.0217924797882947E21    1.0930134673241018E21    1.1642344548599073E21    1.2354554423957122E21    1.306676429931518E21     1.3778974174673222E21    1.4491184050031304E21    1.5203393925389335E21    1.5915603800747428E21    1.662781367610547E21     1.7340023551463562E21    1.8052233426821597E21    1.8764443302179695E21    1.9476653177537705E21    2.018886305289581E21     2.090107292825386E21     2.161328280361192E21     2.2325492678969952E21    2.3037702554328024E21    2.3749912429686067E21    2.4462122305044134E21    2.517433218040216E21     2.588654205576026E21     2.659875193111833E21     2.7310961806476355E21    2.8023171681834453E21    2.873538155719254E21     2.9447591432550524E21    3.0159801307908586E21    3.087201118326666E21     3.1584221058624756E21    3.22964309339828E21      3.300864080934089E21     3.3720850684698957E21    3.443306056005693E21     3.5145270435415054E21    3.5857480310773105E21
-33.25800570473669        6.570148499591295E20     7.202464926907759E20     7.834781354224254E20     8.467097781540714E20     9.099414208857196E20     9.73173063617368E20      1.0364047063490147E21    1.099636349080663E21     1.1628679918123098E21    1.2260996345439558E21    1.2893312772756047E21    1.35256292000725E21      1.4157945627389E21       1.479026205470546E21     1.5422578482021962E21    1.605489490933842E21     1.668721133665493E21     1.7319527763971355E21    1.7951844191287866E21    1.8584160618604334E21    1.9216477045920812E21    1.9848793473237254E21    2.0481109900553743E21    2.111342632787021E21     2.1745742755186674E21    2.2378059182503121E21    2.3010375609819645E21    2.3642692037136126E21    2.4275008464452573E21    2.490732489176906E21     2.5539641319085567E21    2.6171957746401993E21    2.6804274173718456E21    2.7436590601034945E21    2.8068907028351455E21    2.8701223455667886E21    2.93335398829844E21      2.996585631030088E21     3.059817273761728E21     3.123048916493382E21     3.186280559225028E21
-33.19138668253141        6.612980421426678E20     7.249580203031606E20     7.886179984636564E20     8.522779766241485E20     9.159379547846431E20     9.79597932945138E20      1.0432579111056308E21    1.1069178892661254E21    1.1705778674266183E21    1.234237845587111E21     1.297897823747606E21     1.3615578019080978E21    1.4252177800685937E21    1.4888777582290862E21    1.5525377363895824E21    1.6161977145500744E21    1.679857692710572E21     1.743517670871061E21     1.8071776490315582E21    1.8708376271920518E21    1.9344976053525456E21    1.9981575835130357E21    2.0618175616735314E21    2.1254775398340236E21    2.189137517994517E21     2.252797496155008E21     2.3164574743155064E21    2.380117452476E21        2.443777430636493E21     2.507437408796989E21     2.5710973869574854E21    2.6347573651179737E21    2.698417343278467E21     2.762077321438962E21     2.8257372995994586E21    2.8893972777599495E21    2.9530572559204467E21    3.0167172340809413E21    3.080377212241427E21     3.1440371904019274E21    3.2076971685624194E21
-33.16187162278615        6.634404875706398E20     7.273147133198367E20     7.91188939069037E20      8.550631648182334E20     9.189373905674324E20     9.828116163166314E20     1.0466858420658287E21    1.1105600678150274E21    1.174434293564225E21     1.2383085193134227E21    1.3021827450626226E21    1.3660569708118184E21    1.4299311965610186E21    1.4938054223102154E21    1.557679648059416E21     1.6215538738086124E21    1.6854280995578134E21    1.7493023253070073E21    1.8131765510562086E21    1.877050776805406E21     1.9409250025546045E21    2.0047992283037997E21    2.068673454052999E21     2.132547679802196E21     2.1964219055513933E21    2.2602961313005883E21    2.3241703570497913E21    2.3880445827989876E21    2.451918808548183E21     2.5157930342973833E21    2.5796672600465846E21    2.643541485795776E21     2.7074157115449745E21    2.771289937294173E21     2.835164163043375E21     2.8990383887925704E21    2.962912614541771E21     3.02678684029097E21      3.0906610660401606E21    3.154535291789365E21     3.2184095175385615E21
-32.456450635159484       8.080333206081415E20     8.863669801755296E20     9.647006397429219E20     1.0430342993103094E21    1.1213679588777009E21    1.1997016184450908E21    1.2780352780124792E21    1.3563689375798704E21    1.434702597147259E21     1.5130362567146474E21    1.5913699162820386E21    1.6697035758494254E21    1.748037235416818E21     1.8263708949842071E21    1.9047045545515994E21    1.983038214118986E21     2.061371873686381E21     2.139705533253765E21     2.218039192821158E21     2.2963728523885475E21    2.374706511955938E21     2.453040171523322E21     2.5313738310907137E21    2.609707490658101E21     2.6880411502254904E21    2.76637480979288E21      2.844708469360272E21     2.923042128927661E21     3.0013757884950485E21    3.0797094480624395E21    3.158043107629834E21     3.2363767671972147E21    3.314710426764606E21     3.3930440863319977E21    3.47137774589939E21      3.5497114054667776E21    3.6280450650341696E21    3.7063787246015616E21    3.784712384168943E21     3.86304604373634E21      3.941379703303727E21
-32.016011409473386       6.998340774229309E20     7.67347915339762E20      8.34861753256597E20      9.023755911734277E20     9.698894290902625E20     1.0374032670070964E21    1.1049171049239272E21    1.1724309428407606E21    1.2399447807575922E21    1.307458618674424E21     1.3749724565912593E21    1.4424862945080886E21    1.5100001324249247E21    1.577513970341755E21     1.645027808258591E21     1.7125416461754203E21    1.7800554840922582E21    1.8475693220090853E21    1.9150831599259222E21    1.9825969978427554E21    2.0501108357595883E21    2.117624673676416E21     2.1851385115932526E21    2.252652349510082E21     2.3201661874269169E21    2.387680025343748E21     2.4551938632605835E21    2.5227077011774154E21    2.590221539094245E21     2.6577353770110833E21    2.7252492149279147E21    2.792763052844742E21     2.860276890761577E21     2.927790728678411E21     2.9953045665952464E21    3.062818404512078E21     3.130332242428913E21     3.197846080345747E21     3.265359918262571E21     3.332873756179411E21     3.4003875940962434E21
-31.394072101886202       7.672587512106081E20     8.415152538675235E20     9.157717565244418E20     9.900282591813576E20     1.0642847618382755E21    1.1385412644951928E21    1.2127977671521086E21    1.287054269809025E21     1.361310772465941E21     1.435567275122858E21     1.5098237777797754E21    1.5840802804366896E21    1.6583367830936095E21    1.732593285750524E21     1.806849788407445E21     1.8811062910643578E21    1.9553627937212793E21    2.0296192963781906E21    2.1038757990351108E21    2.1781323016920288E21    2.2523888043489448E21    2.3266453070058577E21    2.4009018096627755E21    2.475158312319692E21     2.54941481497661E21      2.623671317633522E21     2.697927820290441E21     2.7721843229473615E21    2.846440825604272E21     2.920697328261196E21     2.994953830918111E21     3.0692103335750224E21    3.14346683623194E21      3.2177233388888575E21    3.2919798415457764E21    3.366236344202695E21     3.440492846859611E21     3.5147493495165325E21    3.5890058521734367E21    3.6632623548303614E21    3.737518857487278E21
-31.377700453167684       7.67319004869832E20      8.41581539286871E20      9.158440737039132E20     9.901066081209527E20     1.0643691425379942E21    1.1386316769550354E21    1.2128942113720775E21    1.2871567457891178E21    1.3614192802061576E21    1.435681814623198E21     1.5099443490402394E21    1.5842068834572774E21    1.658469417874321E21     1.7327319522913592E21    1.806994486708404E21     1.8812570211254406E21    1.9555195555424858E21    2.0297820899595209E21    2.1040446243765648E21    2.1783071587936064E21    2.2525696932106462E21    2.3268322276276828E21    2.401094762044724E21     2.475357296461762E21     2.5496198308788044E21    2.62388236529584E21      2.6981448997128834E21    2.772407434129927E21     2.8466699685469613E21    2.9209325029640094E21    2.995195037381047E21     3.0694575717980827E21    3.1437201062151245E21    3.2179826406321653E21    3.292245175049208E21     3.36650770946625E21      3.4407702438832903E21    3.515032778300336E21     3.5892953127173635E21    3.663557847134412E21     3.7378203815514525E21
-31.334556097672827       7.71553177064175E20      8.462391388763771E20     9.209251006885829E20     9.956110625007858E20     1.0702970243129905E21    1.1449829861251952E21    1.2196689479373994E21    1.294354909749603E21     1.3690408715618062E21    1.4437268333740098E21    1.5184127951862143E21    1.593098756998415E21     1.667784718810623E21     1.7424706806228242E21    1.817156642435032E21     1.8918426042472312E21    1.966528566059441E21     2.0412145278716396E21    2.1159004896838463E21    2.1905864514960506E21    2.265272413308255E21     2.3399583751204543E21    2.4146443369326576E21    2.4893302987448585E21    2.564016260557065E21     2.638702222369265E21     2.7133881841814707E21    2.7880741459936773E21    2.862760107805875E21     2.9374460696180855E21    3.0121320314302885E21    3.0868179932424857E21    3.161503955054692E21     3.236189916866897E21     3.3108758786791016E21    3.3855618404913077E21    3.460247802303511E21     3.534933764115719E21     3.60961972592791E21      3.6843056877401234E21    3.7589916495523275E21
-30.91494356811135        7.951715219660703E20     8.722194877517702E20     9.49267453537474E20      1.0263154193231728E21    1.1033633851088754E21    1.180411350894578E21     1.2574593166802792E21    1.3345072824659804E21    1.4115552482516808E21    1.4886032140373818E21    1.565651179823085E21     1.6426991456087835E21    1.7197471113944873E21    1.7967950771801864E21    1.8738430429658908E21    1.9508910087515883E21    2.0279389745372948E21    2.1049869403229895E21    2.182034906108696E21     2.2590828718943987E21    2.3361308376800992E21    2.413178803465798E21     2.4902267692515013E21    2.567274735037202E21     2.6443227008229017E21    2.7213706666085995E21    2.7984186323943036E21    2.875466598180007E21     2.952514563965704E21     3.0295625297514117E21    3.1066104955371106E21    3.1836584613228063E21    3.2607064271085094E21    3.33775439289421E21      3.414802358679914E21     3.491850324465617E21     3.5688982902513205E21    3.645946256037024E21     3.7229942218227125E21    3.8000421876084224E21    3.877090153394125E21
-30.760761973742632       8.070815770378919E20     8.853206164959731E20     9.635596559540587E20     1.0417986954121397E21    1.1200377348702236E21    1.1982767743283073E21    1.2765158137863896E21    1.354754853244473E21     1.4329938927025544E21    1.5112329321606367E21    1.5894719716187216E21    1.667711011076801E21     1.7459500505348867E21    1.824189089992968E21     1.9024281294510534E21    1.9806671689091328E21    2.0589062083672204E21    2.137145247825298E21     2.2153842872833865E21    2.2936233267414704E21    2.371862366199549E21     2.4501014056576237E21    2.528340445115708E21     2.606579484573789E21     2.6848185240318724E21    2.76305756348995E21      2.841296602948036E21     2.919535642406122E21     2.9977746818642E21       3.0760137213222904E21    3.1542527607803724E21    3.23249180023845E21      3.3107308396965323E21    3.3889698791546154E21    3.4672089186126985E21    3.545447958070785E21     3.6236869975288683E21    3.701926036986954E21     3.780165076445023E21     3.858404115903118E21     3.936643155361199E21
-30.451991643895926       8.340414278061295E20     9.149765916464487E20     9.959117554867714E20     1.0768469193270909E21    1.1577820831674119E21    1.2387172470077333E21    1.3196524108480525E21    1.4005875746883738E21    1.4815227385286925E21    1.5624579023690132E21    1.6433930662093353E21    1.724328230049653E21     1.8052633938899758E21    1.8861985577302945E21    1.9671337215706186E21    2.0480688854109342E21    2.1290040492512607E21    2.2099392130915754E21    2.2908743769319014E21    2.371809540772221E21     2.452744704612544E21     2.5336798684528635E21    2.6146150322931835E21    2.695550196133504E21     2.776485359973824E21     2.857420523814141E21     2.9383556876544634E21    3.0192908514947865E21    3.100226015335102E21     3.181161179175431E21     3.262096343015752E21     3.343031506856064E21     3.423966670696385E21     3.504901834536708E21     3.585836998377028E21     3.6667721622173505E21    3.747707326057671E21     3.8286424898979957E21    3.909577653738303E21     3.9905128175786346E21    4.071447981418954E21
-30.382460471765572       8.536704103608933E20     9.36568513027695E20      1.0194666156945007E21    1.1023647183613027E21    1.185262821028107E21     1.2681609236949088E21    1.351059026361711E21     1.4339571290285146E21    1.5168552316953163E21    1.5997533343621193E21    1.6826514370289245E21    1.7655495396957249E21    1.8484476423625308E21    1.9313457450293327E21    2.014243847696139E21     2.0971419503629375E21    2.1800400530297465E21    2.2629381556965443E21    2.3458362583633539E21    2.428734361030159E21     2.5116324636969607E21    2.5945305663637627E21    2.6774286690305657E21    2.7603267716973687E21    2.8432248743641717E21    2.9261229770309705E21    3.0090210796977767E21    3.091919182364582E21     3.1748172850313806E21    3.257715387698192E21     3.3406134903649956E21    3.4235115930317897E21    3.506409695698594E21     3.589307798365399E21     3.672205901032202E21     3.755104003699008E21     3.838002106365812E21     3.9209002090326183E21    4.003798311699409E21     4.086696414366224E21     4.1695945170330227E21
-30.24525308967175        8.641769846630343E20     9.48125816239503E20      1.0320746478159759E21    1.1160234793924436E21    1.1999723109689144E21    1.2839211425453863E21    1.3678699741218543E21    1.4518188056983246E21    1.535767637274793E21     1.619716468851263E21     1.7036653004277353E21    1.7876141320042014E21    1.8715629635806746E21    1.955511795157143E21     2.0394606267336166E21    2.1234094583100812E21    2.2073582898865575E21    2.2913071214630218E21    2.375255953039498E21     2.4592047846159664E21    2.5431536161924343E21    2.627102447768904E21     2.7110512793453724E21    2.795000110921842E21     2.878948942498312E21     2.962897774074778E21     3.0468466056512505E21    3.130795437227723E21     3.214744268804188E21     3.2986931003806644E21    3.3826419319571365E21    3.4665907635335977E21    3.550539595110068E21     3.6344884266865394E21    3.7184372582630094E21    3.8023860898394805E21    3.8863349214159527E21    3.970283752992428E21     4.054232584568885E21     4.1381814161453645E21    4.2221302477218345E21
-29.934803419390587       8.063271946055726E20     8.844912388406301E20     9.626552830756916E20     1.0408193273107488E21    1.1189833715458091E21    1.1971474157808685E21    1.2753114600159275E21    1.3534755042509872E21    1.431639548486045E21     1.5098035927211038E21    1.5879676369561644E21    1.6661316811912192E21    1.7442957254262826E21    1.8224597696613384E21    1.900623813896401E21     1.9787878581314556E21    2.0569519023665195E21    2.1351159466015733E21    2.2132799908366372E21    2.2914440350716975E21    2.3696080793067554E21    2.4477721235418115E21    2.525936167776872E21     2.604100212011929E21     2.682264256246987E21     2.7604283004820427E21    2.838592344717105E21     2.9167563889521664E21    2.9949204331872193E21    3.0730844774222854E21    3.151248521657345E21     3.229412565892395E21     3.307576610127456E21     3.385740654362516E21     3.463904698597576E21     3.542068742832636E21     3.620232787067696E21     3.6983968313027576E21    3.7765608755378064E21    3.8547249197728724E21    3.932888964007931E21
-29.830196358574263       9.049800310633625E20     9.930094284260408E20     1.0810388257887241E21    1.1690682231514029E21    1.257097620514086E21     1.345127017876768E21     1.4331564152394455E21    1.5211858126021263E21    1.6092152099648056E21    1.6972446073274858E21    1.7852740046901687E21    1.873303402052844E21     1.9613327994155295E21    2.049362196778206E21     2.1373915941408903E21    2.2254209915035653E21    2.3134503888662521E21    2.401479786228926E21     2.4895091835916114E21    2.577538580954292E21     2.6655679783169703E21    2.7535973756796493E21    2.8416267730423303E21    2.929656170405008E21     3.017685567767689E21     3.105714965130364E21     3.193744362493048E21     3.281773759855731E21     3.369803157218405E21     3.457832554581094E21     3.5458619519437767E21    3.6338913493064467E21    3.721920746669127E21     3.809950144031809E21     3.897979541394489E21     3.9860089387571725E21    4.074038336119852E21     4.1620677334825383E21    4.250097130845204E21     4.338126528207894E21     4.4261559255705757E21
-29.453494063086417       9.19432213538986E20      1.0089071013885839E21    1.0983819892381866E21    1.1878568770877847E21    1.2773317649373827E21    1.3668066527869846E21    1.4562815406365816E21    1.545756428486182E21     1.63523131633578E21      1.7247062041853797E21    1.8141810920349811E21    1.9036559798845776E21    1.9931308677341813E21    2.0826057555837775E21    2.1720806434333802E21    2.261555531282976E21     2.3510304191325814E21    2.440505306982175E21     2.529980194831779E21     2.619455082681379E21     2.7089299705309776E21    2.798404858380574E21     2.887879746230176E21     2.9773546340797713E21    3.066829521929373E21     3.156304409778965E21     3.245779297628571E21     3.335254185478172E21     3.424729073327766E21     3.5142039611773734E21    3.6036788490269764E21    3.6931537368765657E21    3.7826286247261635E21    3.8721035125757664E21    3.9615784004253657E21    4.051053288274968E21     4.140528176124568E21     4.2300030639741705E21    4.319477951823757E21     4.408952839673367E21     4.4984277275229663E21
-29.162595671505873       9.368979686053292E20     1.0281196887573556E21    1.1193414089093866E21    1.2105631290614127E21    1.301784849213442E21     1.3930065693654723E21    1.4842282895174987E21    1.575450009669528E21     1.666671729821555E21     1.757893449973583E21     1.8491151701256142E21    1.9403368902776384E21    2.0315586104296716E21    2.1227803305816962E21    2.2140020507337278E21    2.3052237708857516E21    2.3964454910377895E21    2.4876672111898085E21    2.57888893134184E21      2.6701106514938686E21    2.761332371645897E21     2.852554091797921E21     2.943775811949952E21     3.034997532101977E21     3.1262192522540063E21    3.2174409724060285E21    3.3086626925580617E21    3.3998844127100933E21    3.491106132862115E21     3.5823278530141513E21    3.673549573166183E21     3.764771293318203E21     3.855993013470229E21     3.9472147336222616E21    4.038436453774288E21     4.1296581739263206E21    4.220879894078346E21     4.3121016142303797E21    4.403323334382394E21     4.4945450545344335E21    4.585766774686462E21
-28.902637453675297       9.52248263558928E20      1.0450052897340272E21    1.1377623159091318E21    1.2305193420842315E21    1.3232763682593335E21    1.416033394434438E21     1.5087904206095371E21    1.6015474467846394E21    1.6943044729597403E21    1.7870614991348415E21    1.8798185253099452E21    1.9725755514850428E21    2.0653325776601494E21    2.1580896038352482E21    2.2508466300103523E21    2.343603656185449E21     2.4363606823605554E21    2.529117708535651E21     2.6218747347107567E21    2.7146317608858603E21    2.8073887870609596E21    2.900145813236057E21     2.9929028394111625E21    3.085659865586259E21     3.178416891761364E21     3.271173917936458E21     3.3639309441115656E21    3.4566879702866676E21    3.549444996461766E21     3.6422020226368757E21    3.7349590488119787E21    3.8277160749870717E21    3.920473101162171E21     4.013230127337279E21     4.1059871535123766E21    4.198744179687482E21     4.2915012058625815E21    4.38425823203769E21      4.4770152582127786E21    4.569772284387887E21     4.66252931056299E21
-28.870983968454546       9.557291811565172E20     1.0488343316428577E21    1.1419394821292033E21    1.235044632615543E21     1.3281497831018862E21    1.4212549335882318E21    1.5143600840745718E21    1.607465234560915E21     1.7005703850472566E21    1.7936755355335988E21    1.8867806860199432E21    1.979885836506282E21     2.0729909869926298E21    2.1660961374789698E21    2.2592012879653144E21    2.352306438451653E21     2.4454115889380034E21    2.5385167394243404E21    2.631621889910687E21     2.724727040397031E21     2.817832190883372E21     2.9109373413697095E21    3.0040424918560565E21    3.0971476423423946E21    3.19025279282874E21      3.283357943315075E21     3.3764630938014235E21    3.469568244287767E21     3.562673394774106E21     3.6557785452604555E21    3.7488836957468E21       3.841988846233134E21     3.9350939967194755E21    4.028199147205823E21     4.121304297692162E21     4.2144094481785086E21    4.3075145986648493E21    4.4006197491511974E21    4.4937248996375276E21    4.586830050123878E21     4.679935200610222E21
-28.821791678639897       9.586300487187535E20     1.0520253412029052E21    1.1454206336870621E21    1.238815926171212E21     1.3322112186553666E21    1.425606511139523E21     1.5190018036236752E21    1.6123970961078294E21    1.7057923885919825E21    1.799187681076135E21     1.8925829735602916E21    1.985978266044441E21     2.0793735585286004E21    2.1727688510127517E21    2.2661641434969072E21    2.3595594359810577E21    2.452954728465222E21     2.546350020949369E21     2.6397453134335286E21    2.7331406059176817E21    2.826535898401835E21     2.919931190885983E21     3.0133264833701415E21    3.1067217758542915E21    3.2001170683384483E21    3.2935123608225946E21    3.386907653306753E21     3.480302945790909E21     3.573698238275058E21     3.6670935307592196E21    3.760488823243376E21     3.8538841157275217E21    3.9472794082116743E21    4.0406747006958305E21    4.134069993179983E21     4.22746528566414E21      4.320860578148292E21     4.4142558706324524E21    4.5076511631165924E21    4.601046455600755E21     4.6944417480849097E21
-28.73408418518801        9.6201378524619E20       1.0557475492297672E21    1.1494813132133498E21    1.243215077196928E21     1.3369488411805087E21    1.4306826051640898E21    1.5244163691476678E21    1.618150133131248E21     1.7118838971148266E21    1.8056176610984051E21    1.899351425081987E21     1.993085189065562E21     2.0868189530491467E21    2.1805527170327233E21    2.2742864810163052E21    2.3680202449998814E21    2.4617540089834635E21    2.555487772967037E21     2.649221536950622E21     2.7429553009342006E21    2.836689064917779E21     2.930422828901353E21     3.024156592884938E21     3.1178903568685125E21    3.2116241208520936E21    3.305357884835668E21     3.3990916488192516E21    3.492825412802832E21     3.5865591767864065E21    3.6802929407699934E21    3.774026704753576E21     3.867760468737148E21     3.9614942327207237E21    4.0552279967043064E21    4.1489617606878864E21    4.2426955246714686E21    4.336429288655046E21     4.430163052638631E21     4.523896816622195E21     4.617630580605786E21     4.7113643445893653E21
-28.665848829051107       9.668838787761418E20     1.0611047325997378E21    1.155325586423339E21     1.249546440246935E21     1.3437672940705342E21    1.437988147894134E21     1.5322090017177312E21    1.62642985554133E21      1.720650709364928E21     1.8148715631885238E21    1.9090924170121251E21    2.0033132708357192E21    2.097534124659322E21     2.1917549784829175E21    2.2859758323065183E21    2.380196686130112E21     2.474417539953716E21     2.568638393777309E21     2.6628592476009126E21    2.757080101424508E21     2.8513009552481075E21    2.9455218090717007E21    3.0397426628953023E21    3.1339635167188966E21    3.2281843705424957E21    3.322405224366089E21     3.4166260781896926E21    3.510846932013291E21     3.605067785836885E21     3.69928863966049E21      3.7935094934840913E21    3.8877303473076814E21    3.981951201131275E21     4.0761720549548795E21    4.170392908778478E21     4.264613762602078E21     4.358834616425674E21     4.453055470249277E21     4.5472763240728604E21    4.6414971778964694E21    4.735718031720068E21
-28.156523698071894       9.997563911040858E20     1.0972652513213316E21    1.194774111538585E21     1.2922829717558321E21    1.3897918319730832E21    1.4873006921903353E21    1.5848095524075817E21    1.6823184126248314E21    1.779827272842081E21     1.877336133059328E21     1.9748449932765792E21    2.072353853493824E21     2.1698627137110784E21    2.2673715739283255E21    2.3648804341455766E21    2.4623892943628203E21    2.5598981545800767E21    2.657407014797317E21     2.754915875014575E21     2.852424735231823E21     2.9499335954490715E21    3.0474424556663137E21    3.1449513158835673E21    3.242460176100813E21     3.3399690363180653E21    3.437477896535306E21     3.5349867567525606E21    3.632495616969811E21     3.7300044771870575E21    3.8275133374043133E21    3.9250221976215644E21    4.0225310578388034E21    4.1200399180560524E21    4.2175487782733024E21    4.315057638490553E21     4.412566498707804E21     4.5100753589250514E21    4.6075842191423067E21    4.705093079359542E21     4.802601939576798E21     4.900110799794053E21
-28.13513292954387        1.000449852130098E21     1.0980281057957556E21    1.1956063594614198E21    1.2931846131270796E21    1.3907628667927423E21    1.488341120458406E21     1.5859193741240634E21    1.6834976277897247E21    1.7810758814553856E21    1.8786541351210443E21    1.9762323887867067E21    2.073810642452363E21     2.171388896118029E21     2.2689671497836876E21    2.366545403449351E21     2.464123657115008E21     2.561701910780675E21     2.659280164446328E21     2.7568584181119975E21    2.8544366717776565E21    2.952014925443316E21     3.04959317910897E21      3.147171432774635E21     3.244749686440292E21     3.3423279401059557E21    3.439906193771608E21     3.5374844474372737E21    3.6350627011029364E21    3.7326409547685943E21    3.8302192084342617E21    3.927797462099924E21     4.0253757157655744E21    4.1229539694312345E21    4.220532223096896E21     4.318110476762558E21     4.4156887304282204E21    4.51326698409388E21      4.6108452377595457E21    4.708423491425193E21     4.806001745090863E21     4.903579998756525E21