% Model:              version04.mph
% Version:            COMSOL 6.1.0.252
% Date:               Aug 9 2023, 16:23
% Dimension:          1
% Nodes:              1649
% Expressions:        4
% Description:        Line graph
% x-coordinate (m)        Number density reconstruction Number density reconstruction Number density reconstruction Number density reconstruction
-0.0345                   6.320860167033346E20     1.2518253758318321E21    1.871564734960333E21     2.491304094088834E21
-0.03347822531757974      7.249766487524495E20     1.425254511697864E21     2.1255323746432797E21    2.82581023758869E21
-0.0334171640518279       7.463453104936439E20     1.467991966700277E21     2.1896386229069129E21    2.911285279113546E21
-0.033258005704736686     6.653930426211534E20     1.3060876625996515E21    1.9467822825781516E21    2.5874769025566497E21
-0.03319138668253141      6.697329892490155E20     1.3147677179603004E21    1.959802446671587E21     2.604837175382873E21
-0.03316187162278615      6.719038224824909E20     1.3191094148863235E21    1.9663150072901568E21    2.613520599693986E21
-0.032456450635159485     8.18412530500919E20      1.6121283360675932E21    2.4058441416342687E21    3.1995599472009423E21
-0.03201601140947338      7.087796609470155E20     1.3928636236394264E21    2.0769475863318406E21    2.7610315490242535E21
-0.0313940721018862       7.770977378127767E20     1.5295017509841123E21    2.2819057641554497E21    3.0343097773267846E21
-0.031377700453167685     7.771587906802174E20     1.5296239206610103E21    2.2820890506418017E21    3.0345541806225894E21
-0.03133455609767283      7.814490670044215E20     1.538204575066707E21     2.2949600831289916E21    3.0517155911912737E21
-0.03091494356811135      8.05380377432821E20      1.5860688907565854E21    2.36675740408035E21      3.1474459174041126E21
-0.030760761973742633     8.17448249766242E20      1.6102053170754198E21    2.4029623843845953E21    3.195719451693768E21
-0.030451991643895927     8.447653370151381E20     1.664840884627351E21     2.484916432239568E21     3.304991979851779E21
-0.03038246047176557      8.646544089644128E20     1.7046194342359613E21    2.544584459507516E21     3.3845494847790656E21
-0.03024525308967175      8.75300204847091E20      1.7259117407958456E21    2.5765232767446014E21    3.427134812693356E21
-0.029934803419390588     8.166839304669136E20     1.6086811086788444E21    2.400678286890776E21     3.1926754651027035E21
-0.029830196358574264     9.166439262141223E20     1.8086017949916864E21    2.7005596637692475E21    3.5925175325468074E21
-0.029453494063086418     9.312876361792887E20     1.8378919373155832E21    2.7444962384518814E21    3.6511005395881757E21
-0.02916259567150587      9.489848465257297E20     1.8732889259664128E21    2.797593005407095E21     3.7218970848477787E21
-0.028902637453675297     9.645385695274141E20     1.9043991372469164E21    2.844259704966416E21     3.7841202726859183E21
-0.028870983968454545     9.680656135962456E20     1.9114535508993987E21    2.8548414882025565E21    3.798229425505711E21
-0.028821791678639897     9.710049249731955E20     1.9173327260691745E21    2.8636605271651606E21    3.8099883282611396E21
-0.02873408418518801      9.744335089743145E20     1.9241908725382347E21    2.873948236102153E21     3.823705599666071E21
-0.028665848829051106     9.793681419080793E20     1.9340609432759988E21    2.8887537446439197E21    3.843446546011837E21
-0.028156523698071895     1.0126763150832509E21    2.0006848412349112E21    2.9886933673865705E21    3.976701893538223E21
-0.028135132929543873     1.0133789707411828E21    2.0020906260088774E21    2.990802281276573E21     3.97951393654426E21
-0.02793515295201128      1.0221146159140802E21    2.019565682902984E21     3.0170167498918907E21    4.0144678168807887E21
-0.027765395705844034     1.055110093241716E21     2.0855603386818198E21    3.1160105841219317E21    4.1464608295620345E21
-0.027632717299226103     1.0641987504133133E21    2.1037409029492184E21    3.1432830554851304E21    4.182825208021032E21
-0.02759347218682816      1.0733937698747304E21    2.1221320301065805E21    3.1708702903384356E21    4.2196085505702814E21
-0.027556922449148997     1.0747974887315166E21    2.1249402806250368E21    3.1750830725185615E21    4.2252258644120783E21
-0.027538142997804136     1.0817455545610325E21    2.1388368797806156E21    3.1959282050001996E21    4.253019530219778E21
-0.027144045445415637     1.1247107002488538E21    2.2247802402564984E21    3.324849780264143E21     4.4249193202717803E21
-0.026984088507173626     1.1485527221245928E21    2.2724709899870853E21    3.3963892578495816E21    4.5203075257120703E21
-0.026917599931575692     1.1544699382294016E21    2.284308400547401E21     3.4141468628653976E21    4.5439853251833904E21
-0.026808735465508764     1.1806368040322487E21    2.3366477366934663E21    3.4926586693546814E21    4.648669602015895E21
-0.026750339219674613     1.1850473146545752E21    2.345471905253217E21     3.505896495851855E21     4.666321086450494E21
-0.026584187308750853     1.197200385984968E21     2.3697885278365223E21    3.542376669688077E21     4.714964811539629E21
-0.026494400224519557     1.2131333535643782E21    2.401660956831087E21     3.5901885600977933E21    4.778716163364495E21
-0.026430752543113584     1.217699661309849E21     2.4107986774995915E21    3.6038976936893324E21    4.796996709879066E21
-0.026356632993933593     1.234117040015085E21     2.4436398311990394E21    3.6531626223829946E21    4.862685413566948E21
-0.0263253321633623       1.2449368216548865E21    2.465282312178158E21     3.6856278027014295E21    4.905973293224695E21
-0.026302421122534565     1.247960302248178E21     2.471331320004019E21     3.6947023377598634E21    4.918073355515694E21
-0.02587102283612385      1.3471792932303114E21    2.669827026698237E21     3.992474760166157E21     5.315122493634069E21
-0.02584753340958893      1.352162824270511E21     2.679798552869162E21     4.0074342814678143E21    5.335070010066462E21
-0.025729616208965606     1.380087788396317E21     2.735673338045165E21     4.0912588876940176E21    5.446844437342863E21
-0.025538334160742887     1.4467070033739173E21    2.8689661590688204E21    4.291225314763726E21     5.713484470458618E21
-0.025478276856700857     1.4699504819348916E21    2.915475165470712E21     4.3609998490065327E21    5.806524532542347E21
-0.025415860861979684     1.4970740735891577E21    2.969748652277747E21     4.4424232309663366E21    5.915097809654919E21
-0.025373566922448007     1.5129064897201413E21    3.0014335258840903E21    4.48996056204804E21      5.978487598211974E21
-0.025356663897254723     1.522784340243187E21     3.0211978796141327E21    4.5196114189850834E21    6.018024958356029E21
-0.02534888555767511      1.525481670188462E21     3.0265965098576574E21    4.527711349526862E21     6.028826189196055E21
-0.025230219757619146     1.5911144120741307E21    3.157935975608637E21     4.724757539143149E21     6.291579102677644E21
-0.025143190926197056     1.6508095214102616E21    3.2773973324261585E21    4.903985143442065E21     6.53057295445795E21
-0.025113048988055123     1.677409432845783E21     3.330626597612923E21     4.983843762380068E21     6.637060927147208E21
-0.025029796188243577     1.7782114050207813E21    3.532326979178903E21     5.286442553337033E21     7.040558127495154E21
-0.025019149145889985     1.7884242663111886E21    3.5527669471242627E21    5.317109627937335E21     7.081452308750406E21
-0.02495091508120377      1.8741788945645038E21    3.724380910051931E21     5.574582925539376E21     7.424784941026802E21
-0.02483878541149978      2.052890406965472E21     4.0820397698979715E21    6.11118913283049E21      8.140338495762989E21
-0.0247045042918545       2.4160230665906144E21    4.808741624320992E21     7.201460182051378E21     9.594178739781753E21
-0.024679646075693607     2.4926229291972517E21    4.962046358215542E21     7.431469787233863E21     9.900893216252182E21
-0.024677007131520007     2.5008585959607915E21    4.978529152250289E21     7.456199708539803E21     9.933870264829304E21
-0.02464988516408905      2.5956048607503267E21    5.168146336133248E21     7.740687811516165E21     1.031322928689909E22
-0.02462618753270479      2.679557323997909E21     5.336168820561826E21     7.992780317125747E21     1.0649391813689654E22
-0.024596035623429144     2.796526844926063E21     5.570267982022345E21     8.344009119118618E21     1.1117750256214884E22
-0.024576170608894516     2.882217062530249E21     5.741760602545063E21     8.601304142559876E21     1.1460847682574703E22
-0.02457426166377076      2.8896150046632753E21    5.756567042901582E21     8.623519081139868E21     1.1490471119378146E22
-0.024562133267825508     2.942276130480515E21     5.861961047414545E21     8.781645964348578E21     1.170133088128261E22
-0.024527258828732527     3.099300226498234E21     6.176222868314909E21     9.253145510131576E21     1.233006815194825E22
-0.024521121508206872     3.1264143807917945E21    6.230489860494231E21     9.334565340196677E21     1.2438640819899113E22
-0.02449866940110721      3.2283423769406976E21    6.434490307983577E21     9.640638239026465E21     1.2846786170069344E22
-0.024491296640584578     3.265688105185926E21     6.509231778192237E21     9.752775451198525E21     1.2996319124204825E22
-0.024488100501399192     3.279564572155692E21     6.537005319343905E21     9.794446066532112E21     1.3051886813720328E22
-0.024428201297056664     3.596063170446417E21     7.170413940694747E21     1.07447647109431E22      1.4319115481191432E22
-0.024425848210656607     3.6093456623425636E21    7.19699580608688E21      1.0784645949831197E22    1.4372296093575498E22
-0.024424480670554083     3.615220218656393E21     7.208753829233981E21     1.0802287439811587E22    1.439582105038919E22
-0.024402902860405085     3.7202442723204955E21    7.41895313193848E21      1.1117661991556486E22    1.4816370851174488E22
-0.024402158810770184     3.7242609409538576E21    7.426993448827744E21     1.1129725956701651E22    1.483245846457553E22
-0.024389012063801875     3.7901571778374947E21    7.558877739918133E21     1.1327598301998762E22    1.509631886407941E22
-0.024388537729743726     3.792712939913822E21     7.563992684763866E21     1.1335272429613914E22    1.5106552174463964E22
-0.02437386469416393      3.865242767644955E21     7.709155940001652E21     1.1553069112358357E22    1.5396982284715075E22
-0.02435734969043569      3.942956313367536E21     7.86469996628092E21      1.1786443619194322E22    1.570818727210771E22
-0.024355659237131712     3.950572837225697E21     7.87994417764673E21      1.180931551806775E22     1.5738686858488766E22
-0.024332964012887124     4.065369999323721E21     8.109699232047441E21     1.215402846477114E22     1.6198357697494864E22
-0.02430325327978137      4.2063578522033156E21    8.391883685985534E21     1.257740951976775E22     1.6762935353549942E22
-0.024302750636044267     4.208522540244034E21     8.396217160180944E21     1.258391178011781E22     1.6771606400054698E22
-0.0243003383200065       4.2213849766118986E21    8.421958744127697E21     1.2622532511643493E22    1.682310627915928E22
-0.024257201615171427     4.427434255656501E21     8.834357076599584E21     1.324127989754265E22     1.7648202718485728E22
-0.024246718923790357     4.473530280544035E21     8.926620777009097E21     1.3379711273474156E22    1.7832801769939221E22
-0.024238155407027596     4.5148438326705683E21    9.009307277457014E21     1.3503770722243447E22    1.7998234167029875E22
-0.02422857212291618      4.5563877075344105E21    9.09246046528948E21      1.3628533223044552E22    1.816460598079962E22
-0.024216905395263416     4.608927058920095E21     9.197618987212938E21     1.3786310915505793E22    1.837500284379862E22
-0.024209602742330288     4.6489806542772277E21    9.277775793062737E21     1.3906570931848253E22    1.8535366070633759E22
-0.024195754261515753     4.711535071316199E21     9.402978841368676E21     1.4094422611421137E22    1.8785866381473601E22
-0.024153005364164128     4.899363941955697E21     9.778924440623495E21     1.4658484939291286E22    1.9538045437959066E22
-0.024087986895281268     5.168482997159254E21     1.0317599550944871E22    1.546671610473048E22     2.0615832658516074E22
-0.0240656758029325       5.255093741600229E21     1.0490967027477715E22    1.5726840313355176E22    2.0962713599232644E22
-0.024042884214380417     5.348670072205255E21     1.0678268075947659E22    1.6007866079690063E22    2.1337464083432474E22
-0.02402006489186432      5.4370846782565E21       1.085524454617351E22     1.6273404414090547E22    2.1691564282007505E22
-0.024007567282729396     5.485186134245528E21     1.0951528184110163E22    1.6417870233974803E22    2.1884212283839435E22
-0.023983616948134598     5.600491413252263E21     1.118229289570837E22     1.6764094378164533E22    2.2345895860620644E22
-0.023981177916114087     5.609742188211677E21     1.1200809775947833E22    1.6791877363684017E22    2.238294495142012E22
-0.023871888046515292     6.016563016073345E21     1.2015147613154584E22    1.8013732210235815E22    2.4012316807317005E22
-0.023862815834186018     6.050116223504531E21     1.208231025491447E22     1.8114504286324449E22    2.4146698317734328E22
-0.02386022714720301      6.058804313804886E21     1.2099702890270453E22    1.8140601466736001E22    2.418150004320156E22
-0.023797244059302346     6.282961208020591E21     1.254841130641057E22     1.8813861404800516E22    2.507931150319049E22
-0.02379278154382227      6.300747453896691E21     1.2584010990120709E22    1.886727452634472E22     2.5150538062568725E22
-0.023746453604474672     6.479129044387998E21     1.2941062224508485E22    1.9402995404628975E22    2.5864928584749443E22
-0.0237436097252062       6.488501465140542E21     1.295982406773791E22     1.9431146670335264E22    2.5902469272932637E22
-0.023726218025144602     6.545289043549493E21     1.3073506872232038E22    1.960172470091459E22     2.612994252959712E22
-0.023725657941824463     6.547123610711501E21     1.3077179284315846E22    1.960723495792019E22     2.6137290631524527E22
-0.023708266241762928     6.605106022666699E21     1.3193252136617412E22    1.9781398250568144E22    2.636954436451884E22
-0.023707706158442768     6.606981908579387E21     1.3197006720113595E22    1.978703153164779E22     2.6377056343181998E22
-0.023689569535578735     6.663373118730585E21     1.3309902133017593E22    1.9956431147304636E22    2.6602960161591685E22
-0.023684976221022447     6.679669185925584E21     1.3342522504534676E22    2.000537582314378E22     2.6668229141752866E22
-0.023648540483232606     6.801372922699834E21     1.3586154272618438E22    2.037093562253704E22     2.7155716972455563E22
-0.023611330448891552     6.921444907641966E21     1.3826526520035085E22    2.0731608132428233E22    2.76366897448213E22
-0.023587183628057333     7.004307548648013E21     1.3992400244713948E22    2.0980492940779907E22    2.796858563684588E22
-0.023530992637796164     7.181537387295708E21     1.4347203876325773E22    2.1512870365355894E22    2.8678536854385954E22
-0.023446758077830254     7.441071585986621E21     1.4866786317176798E22    2.2292501048366998E22    2.9718215779557174E22
-0.023441877862898107     7.455587681623294E21     1.489584756082603E22     2.2336107440028795E22    2.9776367319231517E22
-0.02341629884465503      7.540954701298945E21     1.5066738636697832E22    2.259252257209675E22     3.011830650749563E22
-0.023328655987982214     7.806435337230146E21     1.5598231385011999E22    2.339002743279385E22     3.1181823480575635E22
-0.02331497899559319      7.84610648719603E21      1.5677655374999805E22    2.350920426280359E22     3.134075315060741E22
-0.023272425276904665     7.976780069826193E21     1.5939261829451834E22    2.3901743589077474E22    3.186422534870313E22
-0.02325907900628555      8.015020558574071E21     1.6015823534024758E22    2.401662650947543E22     3.201742948492608E22
-0.023256253073600033     8.022446668938744E21     1.6030692845913733E22    2.4038939022888716E22    3.204718519986364E22
-0.023234149480676383     8.08709984093535E21      1.616013266512313E22     2.4233165489310924E22    3.230619831349867E22
-0.02321351622272439      8.141513795483282E21     1.6269085709447574E22    2.43966576234119E22      3.252422953737618E22
-0.023200630854662806     8.176628440460328E21     1.6339393760552724E22    2.4502159080645147E22    3.2664924400737485E22
-0.0231811217026671       8.2310517079745E21       1.6448357838840266E22    2.466566396970602E22     3.288297010057174E22
-0.023168982784053202     8.265966429366744E21     1.6518260569376758E22    2.477055470938679E22     3.302284884939673E22
-0.023158635720158874     8.292553471980954E21     1.6571497582026933E22    2.4850441692072915E22    3.3129385802118906E22
-0.023137537945646908     8.357479384648868E21     1.6701476303789292E22    2.5045473222929716E22    3.3389470142070115E22
-0.023123978504492382     8.39355520621059E21      1.6773710136271482E22    2.515386506633239E22     3.3534019996393247E22
-0.02309611004272081      8.465060026882633E21     1.6916888281150644E22    2.536871653541864E22     3.382054478968668E22
-0.023060700272836916     8.558949046585957E21     1.7104879934191167E22    2.5650810821796327E22    3.4196741709401487E22
-0.02299935467087618      8.730150083111136E21     1.7447653765485158E22    2.6165157447859196E22    3.488266113023319E22
-0.022962030607740505     8.826208769707277E21     1.7639996806146281E22    2.6453784842585294E22    3.5267572879024307E22
-0.02292579745323744      8.916645453220751E21     1.7821088765219984E22    2.6725532077219247E22    3.562997538921845E22
-0.022849339849834623     9.119165115693565E21     1.822659019412998E22     2.7334015272566443E22    3.64414403510029E22
-0.022841652689066606     9.140917386892465E21     1.8270142096665559E22    2.739936680643871E22     3.652859151621178E22
-0.022819060148905924     9.193653367734426E21     1.837574991703792E22     2.7557846466341414E22    3.673994301564493E22
-0.022803634235367763     9.226324658538064E21     1.8441186453025689E22    2.7656048247513377E22    3.6870910042001023E22
-0.022798022096005136     9.238125369877917E21     1.8464821831198543E22    2.7691518292519247E22    3.691821475383989E22
-0.022704016330304923     9.459927367636392E21     1.8908994965846094E22    2.835806256405579E22     3.780713016226548E22
-0.022672102977866572     9.525306591387775E21     1.903994675804285E22     2.8554586924697944E22    3.8069227091353E22
-0.022671959739503575     9.525334674427236E21     1.904000301472405E22     2.8554671355020903E22    3.80693396953177E22
-0.022671721386811644     9.5256353109399E21       1.9040606329038503E22    2.855557734713716E22     3.8070548365235764E22
-0.02265201594667911      9.564044672793743E21     1.9117544663663096E22    2.8671044654532456E22    3.822454464540182E22
-0.02264981833891138      9.570078302634418E21     1.9129625636146336E22    2.8689172969658287E22    3.824872030317021E22
-0.022639345854981667     9.59457219295682E21      1.9178676842184068E22    2.8762781491411296E22    3.8346886140638555E22
-0.022637148247213926     9.600858403576771E21     1.919126326532138E22     2.878166812706598E22     3.837207298881054E22
-0.022565599039588612     9.754278103804505E21     1.9498536762103346E22    2.9242795420402244E22    3.898705407870102E22
-0.022546785771466092     9.78954263984452E21      1.95691812404582E22      2.934881984107191E22     3.912845844168551E22
-0.022533903081357085     9.812699099465557E21     1.9615572391873414E22    2.941844568428131E22     3.9221318976689165E22
-0.022521673497609283     9.83412432359181E21      1.9658497486803693E22    2.948287065001555E22     3.930724381322739E22
-0.02249982834769941      9.876403899494293E21     1.9743189460846268E22    2.96099750221983E22      3.947676058355024E22
-0.022443346283215572     9.9958933197961E21       1.998251297098916E22     2.9969132622182225E22    3.9955752273375255E22
-0.022420905768178574     1.003287787167484E22     2.0056619369202362E22    3.0080360866729913E22    4.01041023642574E22
-0.02241524341302079      1.004521217170215E22     2.0081322675135635E22    3.0117433178569176E22    4.015354368200265E22
-0.022386268646954966     1.0100188791428914E22    2.0191453976748236E22    3.028271916206758E22     4.037398434738703E22
-0.022338161535325727     1.017663006079756E22     2.0344632641036516E22    3.051263522127543E22     4.068063780151431E22
-0.02232360409369307      1.0218476135356245E22    2.042841349781839E22     3.0638350860280517E22    4.084828822274265E22
-0.022319563894135273     1.0224531365670215E22    2.044054907107163E22     3.0656566776473126E22    4.087258448187453E22
-0.022305006452502607     1.024590621816291E22     2.048338819674812E22     3.072087017533345E22     4.095835215391862E22
-0.022300966252944816     1.0254636233854386E22    2.0500873026665905E22    3.0747109819477502E22    4.099334661228899E22
-0.02228640881131216      1.0282885331802013E22    2.055746126986093E22     3.083203720791986E22     4.110661314597878E22
-0.02228286192006665      1.0290163227868801E22    2.0572038735255956E22    3.0853914242643176E22    4.1135789750030355E22
-0.022250850893973363     1.0336129903427794E22    2.066417051939912E22     3.0992211135370447E22    4.132025175134172E22
-0.022220560204615818     1.0386109401886552E22    2.0764316797827295E22    3.1142524193767992E22    4.152073158970864E22
-0.02221669364931944      1.0391007816729653E22    2.0774138221576157E22    3.1157268626422637E22    4.154039903126911E22
-0.022157916036535292     1.0482089117294652E22    2.0956667448159673E22    3.1431245779024667E22    4.190582410988966E22
-0.022115006110744347     1.0547756936107412E22    2.108827199372291E22     3.1628787051338417E22    4.21693021089538E22
-0.02208608604189605      1.059152849079425E22     2.117599728046736E22     3.176046607014055E22     4.2344934859813675E22
-0.022032654373673237     1.066570135795916E22     2.132468295722142E22     3.1983664556483818E22    4.264264615574614E22
-0.022010858020647554     1.0691018896059794E22    2.1375457779970092E22    3.205989666388048E22     4.2744335547790805E22
-0.02199792025092457      1.0705456354278758E22    2.1404415047205327E22    3.2103373740131956E22    4.280233243305856E22
-0.02194989130323713      1.0762857808898118E22    2.151952767132524E22     3.2276197533752387E22    4.303286739617958E22
-0.021926314973206892     1.079828180641342E22     2.1590529256485103E22    3.2382776706556867E22    4.317502415662847E22
-0.021924806272603264     1.079989881150833E22     2.1593772903345307E22    3.2387646995182308E22    4.318152108701923E22
-0.02189707613422249      1.0830894445419167E22    2.1655945025780726E22    3.2480995606142355E22    4.330604618650392E22
-0.021866563813452658     1.0863037741850985E22    2.1720432695077E22       3.257782764830302E22     4.343522260152911E22
-0.021853696510745268     1.089611199081135E22     2.1786665991359565E22    3.2677219991907836E22    4.356777399245608E22
-0.021850852457264435     1.0898036144574848E22    2.1790533621992785E22    3.268303109941077E22     4.3575528576828714E22
-0.02183528665299934      1.0910725320631952E22    2.1816015954645317E22    3.2721306588658736E22    4.362659722267203E22
-0.021793113683840876     1.085513119993505E22     2.1705111453208282E22    3.2555091706481463E22    4.340507195975471E22
-0.021778431620348756     1.0868270914589931E22    2.173149000841495E22     3.259470910224004E22     4.345792819606501E22
-0.021769182066482644     1.08799019685504E22      2.1754814890620607E22    3.262972781269081E22     4.3504640734760985E22
-0.021742367074826192     1.0904593449423808E22    2.180438094323246E22     3.2704168437041137E22    4.360395593084979E22
-0.021736225229399796     1.0908262945393788E22    2.181176199976733E22     3.271526105414089E22     4.3618760108514495E22
-0.021696666789020165     1.0937097356245471E22    2.1869704151983077E22    3.2802310947720594E22    4.373491774345817E22
-0.021664829310055346     1.0962549656239533E22    2.1920831300924277E22    3.287911294560902E22     4.3837394590293765E22
-0.021662497282795238     1.0964062775600736E22    2.1923874210026134E22    3.288368564445149E22     4.384349707887692E22
-0.021660180901050718     1.0965566787414972E22    2.192689852285417E22     3.2888230258293445E22    4.384956199373263E22
-0.02164792520640368      1.0970794308620083E22    2.19374393207874E22      3.2904084332954736E22    4.387072934512203E22
-0.021645019893490984     1.0972310082547184E22    2.19404909918842E22      3.2908671901221226E22    4.387685281055822E22
-0.02163216294491234      1.0977916474307308E22    2.1951793496393643E22    3.292567051848005E22     4.389954754056633E22
-0.02162342667793171      1.0985932769711754E22    2.1967887533566184E22    3.2949842297420624E22    4.393179706127506E22
-0.021582235849847475     1.1123135189997075E22    2.224257787967393E22     3.336202056935089E22     4.448146325902773E22
-0.02157406612473524      1.1134354495776775E22    2.2265072388878778E22    3.339579028198079E22     4.452650817508292E22
-0.02154591851505308      1.1151333961714842E22    2.22992248863692E22      3.344711581102362E22     4.459500673567796E22
-0.02154303895970186      1.1152113049540563E22    2.230080207075832E22     3.3449491091976104E22    4.459818011319392E22
-0.02154163453597784      1.1152573518709105E22    2.2301732728913447E22    3.3450891939117827E22    4.460005114932213E22
-0.021518117990059992     1.1179368093081955E22    2.235547942173305E22     3.353159075038416E22     4.470770207903526E22
-0.021492952123216606     1.1239135465648173E22    2.2475178504173233E22    3.37112215426984E22      4.4947264581223385E22
-0.021491118156604913     1.124892872314419E22     2.2494776912268323E22    3.374062510139252E22     4.498647329051665E22
-0.02149095528651819      1.1248943125618777E22    2.249480679272675E22     3.3740670459834794E22    4.4986534126942754E22
-0.02149027076668971      1.1250553067953998E22    2.2498031048462933E22    3.3745509028971957E22    4.4992987009480875E22
-0.021488292027393982     1.126123482364127E22     2.2519407117709873E22    3.3777579411778465E22    4.503575170584705E22
-0.021453363230216654     1.1426599226920883E22    2.2850355690187537E22    3.4274112153454348E22    4.569786861672094E22
-0.02143769368240627      1.1490528078310815E22    2.297830588677807E22     3.446608369524531E22     4.595386150371253E22
-0.02140388669768386      1.163384746460892E22     2.3265137885187477E22    3.489642830576598E22     4.652771872634455E22
-0.02137893431275595      1.1728620622595599E22    2.345481744551113E22     3.5181014268426725E22    4.690721109134218E22
-0.021370808413337987     1.1758874986036855E22    2.3515368100673377E22    3.527186121530997E22     4.702835432994652E22
-0.02133899482709137      1.1863142026340685E22    2.3724055700377933E22    3.558496937441523E22     4.744588304845248E22
-0.021322233767003554     1.1915434255381686E22    2.3828716169175377E22    3.5741998082969085E22    4.765527999676279E22
-0.02129027494677535      1.1995221670621243E22    2.39884245526708E22      3.5981627434720307E22    4.797483031676989E22
-0.02124426065016143      1.2078139114240715E22    2.4154428769446847E22    3.623071842465302E22     4.830700807985912E22
-0.02124425863165344      1.2078136155135575E22    2.4154422860038036E22    3.6230709564940548E22    4.8306996269843E22
-0.021244257318793314     1.2078148158286866E22    2.4154446872624633E22    3.623074558696246E22     4.830704430130021E22
-0.021244253025271664     1.2078139285751995E22    2.4154429138252245E22    3.6230718990752556E22    4.830700884325278E22
-0.02122786517966         1.2099687703518263E22    2.419758032575814E22     3.6295472947998163E22    4.8393365570238E22
-0.021174958056124467     1.2150800656249418E22    2.4299962088466952E22    3.6449123520684443E22    4.859828495290188E22
-0.021168519177929435     1.22438933755177E22      2.4486164652017974E22    3.672843592851831E22     4.89707072050186E22
-0.021165192838040123     1.224481353296472E22     2.4488013808948824E22    3.673121408493302E22     4.897441436091709E22
-0.021147064932880683     1.2245938198468866E22    2.4490308708689913E22    3.6734679218910977E22    4.897904972913196E22
-0.02095275999356922      1.2253216713647975E22    2.4505210566757344E22    3.6757204419866698E22    4.90091982729761E22
-0.02093306172162509      1.224417245439709E22     2.448714639185887E22     3.6730120329320708E22    4.89730942667825E22
-0.020885279743676252     1.2222480454406686E22    2.444381590954735E22     3.6665151364688037E22    4.888648681982871E22
-0.020864273512933094     1.220933143196753E22     2.44175391159997E22      3.662574680003189E22     4.883395448406405E22
-0.020852290035798995     1.2202412267020948E22    2.440371272448652E22     3.6605013181952063E22    4.880631363941759E22
-0.020840304656129294     1.2193805577638858E22    2.43865105588634E22      3.6579215540087924E22    4.877192052131237E22
-0.020712300357048873     1.2142853319288466E22    2.4284705845131006E22    3.642655837097358E22     4.856841089681605E22
-0.02069688581473473      1.2134856044818492E22    2.426872124026499E22     3.640258643571148E22     4.853645163115793E22
-0.02063050911784878      1.211794200856627E22     2.4234932978667244E22    3.6351923948768283E22    4.84689149188692E22
-0.020475142666740886     1.2157716242308681E22    2.4314555354836265E22    3.6471394467363867E22    4.862823357989146E22
-0.02046639945939325      1.2149213812529547E22    2.4297554151731722E22    3.6445894490933896E22    4.859423483013606E22
-0.0204614788654478       1.2161342788286047E22    2.4321813859312305E22    3.6482284930338516E22    4.864275600136473E22
-0.02044083164842894      1.2155615493348024E22    2.4310367013420793E22    3.646511853349358E22     4.861987005356629E22
-0.019968529584998444     1.2167522398118938E22    2.4334312279566444E22    3.650110216101396E22     4.866789204246143E22